/*--------------------------------*- C++ -*----------------------------------*\
| =========                 |                                                 |
| \\      /  F ield         | OpenFOAM: The Open Source CFD Toolbox           |
|  \\    /   O peration     | Version:  4.x                                   |
|   \\  /    A nd           | Web:      www.OpenFOAM.org                      |
|    \\/     M anipulation  |                                                 |
\*---------------------------------------------------------------------------*/
FoamFile
{
    version     2.0;
    format      ascii;
    class       volScalarField;
    location    "170";
    object      p;
}
// * * * * * * * * * * * * * * * * * * * * * * * * * * * * * * * * * * * * * //

dimensions      [0 2 -2 0 0 0 0];

internalField   nonuniform List<scalar> 
410400
(
0.193416
0.193433
0.19342
0.193431
0.193425
0.193423
0.193427
0.193412
0.193423
0.193417
0.193419
0.193423
0.193404
0.193421
0.193415
0.193415
0.193421
0.193406
0.193419
0.193416
0.193419
0.193424
0.193411
0.19343
0.193425
0.193429
0.193439
0.193424
0.19344
0.193432
0.193429
0.193427
0.193429
0.19345
0.193449
0.193449
0.193456
0.193442
0.19346
0.193448
0.193445
0.19344
0.193432
0.193452
0.193446
0.193443
0.193445
0.193424
0.193437
0.193419
0.167987
0.167949
0.16796
0.167952
0.167956
0.167959
0.167958
0.167971
0.167958
0.167959
0.16797
0.167968
0.167967
0.167964
0.167966
0.167968
0.167969
0.167962
0.167955
0.167966
0.167981
0.167958
0.167964
0.167973
0.167969
0.167973
0.167992
0.167989
0.167982
0.167993
0.167987
0.168002
0.167968
0.167977
0.167986
0.167987
0.167997
0.168004
0.168019
0.168016
0.168011
0.168023
0.167996
0.168
0.167982
0.167973
0.167985
0.167975
0.167971
0.167995
0.142374
0.142368
0.142344
0.142406
0.142392
0.142393
0.142405
0.142376
0.142406
0.142401
0.142396
0.142404
0.14238
0.142403
0.142391
0.142394
0.14241
0.142377
0.142402
0.142391
0.142395
0.142414
0.142387
0.142423
0.142433
0.14245
0.142459
0.142448
0.142471
0.142508
0.142415
0.142409
0.142358
0.142379
0.142389
0.142437
0.14246
0.142422
0.142488
0.142499
0.142455
0.14243
0.142385
0.142484
0.142428
0.142409
0.142422
0.14241
0.142412
0.14241
0.122038
0.122039
0.122076
0.122022
0.122017
0.122045
0.12203
0.122066
0.122034
0.122003
0.12202
0.122025
0.122059
0.122038
0.122035
0.122044
0.122003
0.122037
0.121992
0.122044
0.122004
0.121964
0.121995
0.121997
0.122047
0.122074
0.122086
0.122171
0.122101
0.122072
0.122085
0.122065
0.122106
0.122065
0.122038
0.122084
0.122082
0.122104
0.122061
0.122063
0.12211
0.122104
0.122156
0.122083
0.122066
0.122048
0.122046
0.122075
0.122026
0.122034
0.0973719
0.0973604
0.0973438
0.0973641
0.0973478
0.0973888
0.09739
0.0973906
0.0974036
0.0974019
0.0973621
0.0973924
0.0973281
0.0973628
0.097314
0.0973855
0.0973803
0.097373
0.0973587
0.0973161
0.0973466
0.0973654
0.0974931
0.0974557
0.0974241
0.0974101
0.0974097
0.0974169
0.0974139
0.0974156
0.0973874
0.0973813
0.0973844
0.0973787
0.0973781
0.0973688
0.0973527
0.0973061
0.097342
0.0973766
0.097389
0.0974079
0.097434
0.0974339
0.0974208
0.09741
0.0973782
0.0973799
0.0973678
0.0973608
0.0787122
0.0787593
0.0787483
0.0787669
0.0787733
0.078766
0.0787507
0.0787924
0.0787483
0.078766
0.0787679
0.0787561
0.078799
0.0787603
0.0787761
0.0787786
0.0787691
0.0788187
0.0787902
0.0787959
0.0787912
0.0787088
0.0787744
0.0787698
0.0787733
0.0787829
0.0787707
0.0787493
0.0787561
0.0787337
0.0787903
0.0787764
0.0788167
0.0787685
0.0787853
0.0787364
0.0787769
0.0787469
0.0787118
0.0787552
0.0787189
0.0786778
0.0787207
0.078683
0.0786941
0.0786986
0.0786841
0.078724
0.0786827
0.0786953
0.0616567
0.0616409
0.0616735
0.0616513
0.0616633
0.0616652
0.0616559
0.0616868
0.0616568
0.0616685
0.0616685
0.0616581
0.0616893
0.061661
0.0616724
0.0616732
0.0616653
0.0616969
0.0616709
0.0616907
0.0617256
0.061772
0.0618304
0.0617294
0.0617094
0.0616899
0.0616704
0.0616885
0.0616603
0.0616703
0.0616693
0.0616581
0.0616886
0.0616604
0.0616737
0.0616741
0.0616666
0.0616968
0.0616662
0.0616738
0.0616676
0.061658
0.061681
0.0616524
0.0616688
0.0616621
0.0616479
0.0616969
0.06169
0.0616992
0.0462736
0.0462188
0.0462542
0.0463261
0.0463404
0.0463436
0.0463407
0.0463563
0.0463421
0.0463466
0.0463467
0.0463427
0.0463581
0.0463455
0.0463525
0.0463565
0.0463525
0.0463284
0.0462466
0.0462964
0.0463665
0.0463537
0.0463658
0.0463594
0.0463637
0.0463458
0.046345
0.046308
0.0463401
0.0463542
0.0463458
0.0463427
0.0463602
0.0463474
0.0463538
0.046356
0.0463531
0.0463712
0.0463651
0.0463799
0.0464077
0.0464544
0.0465637
0.046404
0.0463901
0.0463682
0.0463543
0.0463608
0.0463426
0.0463338
0.0326865
0.0327277
0.0327294
0.0326276
0.0326196
0.0326072
0.032598
0.0326047
0.0325952
0.0326027
0.032636
0.0326355
0.0326371
0.0326435
0.0326952
0.032773
0.0328167
0.032898
0.0330782
0.0330452
0.0329172
0.0327735
0.0327054
0.0327171
0.0327099
0.0326956
0.0327353
0.0327312
0.0326744
0.0326901
0.0326052
0.032592
0.0325973
0.0325865
0.03259
0.0325915
0.0325901
0.0326026
0.0325988
0.0326091
0.0326247
0.0326372
0.0326943
0.0327939
0.0326946
0.0326457
0.0326352
0.0326364
0.0326822
0.0326387
0.0211519
0.0211815
0.0211386
0.0211687
0.021137
0.0211506
0.0210947
0.0211527
0.0211468
0.0211472
0.0211234
0.0211106
0.0210897
0.0210848
0.0210947
0.0211044
0.0210937
0.0211235
0.0210858
0.0211738
0.0211159
0.0211605
0.0211429
0.0211249
0.021117
0.0210328
0.0210531
0.0210814
0.0210764
0.0210681
0.0210998
0.0211061
0.0211428
0.0211445
0.0211508
0.0211489
0.021147
0.0211542
0.0211488
0.0211519
0.0211512
0.0211441
0.0211024
0.0210778
0.021032
0.0210536
0.0211435
0.021147
0.0211333
0.0211815
0.0120269
0.0121538
0.0119024
0.0116803
0.0115516
0.0116073
0.0115655
0.0115058
0.0114948
0.0115263
0.0114907
0.0114924
0.0115127
0.0115306
0.0116054
0.0117173
0.0118223
0.0121561
0.0119958
0.01179
0.0116696
0.011611
0.0115424
0.0114917
0.011459
0.0113769
0.0113759
0.0114006
0.0113812
0.0114149
0.011416
0.0113947
0.0113758
0.0113728
0.0114332
0.0113686
0.0113672
0.0113713
0.0113631
0.0113678
0.0113797
0.0114461
0.0114369
0.0114187
0.0113846
0.0113601
0.0114145
0.0113985
0.0114625
0.0117018
0.0037883
0.0038761
0.00391204
0.00390882
0.00392661
0.00386297
0.00392204
0.00394296
0.00394218
0.0039527
0.00395389
0.00392935
0.00399561
0.00392858
0.00400424
0.00400214
0.00396459
0.004073
0.00400811
0.0039373
0.00395968
0.00390501
0.00395554
0.00396295
0.00386476
0.00392887
0.00392199
0.00386238
0.00382296
0.00392791
0.00388484
0.00392009
0.00394191
0.00392466
0.003892
0.00389792
0.00396254
0.00395017
0.0039406
0.00394899
0.00390476
0.00394438
0.00397459
0.00397355
0.00401338
0.00413206
0.00424342
0.00404629
0.00396804
0.00387843
-0.00171794
-0.00174882
-0.00183233
-0.00177399
-0.00184498
-0.00180256
-0.00190393
-0.0018829
-0.00187542
-0.00188847
-0.00198089
-0.00194767
-0.00207041
-0.00231533
-0.00259005
-0.00217884
-0.00199863
-0.00191345
-0.00198806
-0.0019653
-0.00194539
-0.00193053
-0.00193598
-0.00190846
-0.00192156
-0.00204425
-0.00208156
-0.00218726
-0.00256316
-0.00253144
-0.00211935
-0.0020845
-0.00199314
-0.00199379
-0.00192409
-0.00190843
-0.00190312
-0.00185895
-0.0019401
-0.00184339
-0.00184088
-0.00182085
-0.00187035
-0.00180388
-0.00185931
-0.00184618
-0.00182462
-0.00167437
-0.00176305
-0.0016965
-0.00572413
-0.00564805
-0.00569142
-0.00573003
-0.00575701
-0.00563332
-0.00570192
-0.00567216
-0.0057227
-0.00574867
-0.00570508
-0.00568556
-0.00567642
-0.00576426
-0.0052142
-0.00529789
-0.00546055
-0.00561469
-0.00560534
-0.00562659
-0.00565323
-0.00566924
-0.00567132
-0.00569447
-0.00572367
-0.00567326
-0.00574163
-0.00575185
-0.0057656
-0.00593195
-0.00595989
-0.00582351
-0.00576188
-0.00570878
-0.00572956
-0.00573197
-0.0056658
-0.00565477
-0.00570796
-0.00564568
-0.00565515
-0.00565321
-0.00564682
-0.00567399
-0.00558153
-0.00554304
-0.00542824
-0.00525182
-0.00558043
-0.00561422
-0.00850085
-0.00834494
-0.00821577
-0.00816733
-0.00816729
-0.0081453
-0.00813025
-0.00817791
-0.00815803
-0.00811524
-0.00818668
-0.00809967
-0.00814431
-0.00813902
-0.00817233
-0.00820393
-0.0081019
-0.00816298
-0.0081185
-0.00815871
-0.00810554
-0.00811586
-0.00811095
-0.00808699
-0.00817364
-0.00812407
-0.00812171
-0.00816714
-0.00816288
-0.00813405
-0.00820513
-0.00820141
-0.00808137
-0.00816096
-0.00814199
-0.00810646
-0.00813204
-0.00807879
-0.00815299
-0.00807241
-0.00814728
-0.00806209
-0.00812196
-0.00816922
-0.00810072
-0.00808101
-0.00811565
-0.0081293
-0.00816063
-0.00821711
-0.00904785
-0.00899895
-0.0091456
-0.00925061
-0.00930402
-0.00933063
-0.00929096
-0.00935269
-0.00930953
-0.00936771
-0.00935069
-0.00930796
-0.0093599
-0.00939332
-0.0093446
-0.00939498
-0.00937642
-0.00932231
-0.0093874
-0.00933066
-0.00931898
-0.00937844
-0.00931749
-0.00937559
-0.00932168
-0.00932238
-0.00941723
-0.00931841
-0.0093159
-0.00939325
-0.00932247
-0.00937669
-0.00931927
-0.00938075
-0.00932294
-0.00931873
-0.0093492
-0.00935096
-0.00931572
-0.00937121
-0.00937886
-0.00937117
-0.00935989
-0.00930421
-0.00927151
-0.00929629
-0.00931808
-0.00924013
-0.00927072
-0.00912743
-0.0104871
-0.0104241
-0.0104821
-0.0104987
-0.0104257
-0.0105035
-0.0104892
-0.0104264
-0.0104177
-0.0103984
-0.010374
-0.0103392
-0.0102588
-0.0101543
-0.0105231
-0.0104996
-0.0104267
-0.0104195
-0.010509
-0.0104471
-0.0104529
-0.0105292
-0.0104412
-0.0105354
-0.0104859
-0.0104676
-0.0105373
-0.0104543
-0.0104591
-0.0105211
-0.0105169
-0.0104513
-0.0105122
-0.0104475
-0.010508
-0.0105032
-0.0104552
-0.0104198
-0.0105026
-0.0105052
-0.010422
-0.0104973
-0.0104902
-0.0104968
-0.0104268
-0.0104239
-0.01049
-0.010406
-0.0105151
-0.0104105
-0.0113513
-0.0113859
-0.0113577
-0.0114308
-0.0113977
-0.0114591
-0.0113712
-0.0114479
-0.0114161
-0.0113614
-0.0113986
-0.0113071
-0.0113489
-0.0111675
-0.0111413
-0.0110926
-0.0111599
-0.0112177
-0.0113588
-0.0113277
-0.011395
-0.0113629
-0.01144
-0.0113954
-0.0114413
-0.0114535
-0.0114142
-0.0114847
-0.0114518
-0.0115136
-0.0115688
-0.0115483
-0.011655
-0.0115675
-0.011496
-0.0114402
-0.0114903
-0.0114362
-0.0114221
-0.0114826
-0.0115027
-0.0114146
-0.0114354
-0.0114705
-0.0114313
-0.0114591
-0.0114178
-0.011442
-0.0114536
-0.0113525
-0.0125919
-0.0126243
-0.012626
-0.0125704
-0.012629
-0.0125699
-0.0125586
-0.0126104
-0.0125815
-0.0125297
-0.0125095
-0.0124937
-0.0124593
-0.0123839
-0.0122812
-0.0122473
-0.0123573
-0.0124329
-0.0125278
-0.0124986
-0.012574
-0.0125804
-0.0125568
-0.0125495
-0.0125549
-0.0125714
-0.0126023
-0.0125345
-0.0125983
-0.0125885
-0.0124732
-0.0124213
-0.0124503
-0.0125067
-0.0124925
-0.0125752
-0.0125872
-0.0125476
-0.0126106
-0.0126175
-0.0125691
-0.01262
-0.0126226
-0.0125836
-0.0126231
-0.0126202
-0.0126276
-0.0125687
-0.0126265
-0.012577
0.203051
0.203064
0.203022
0.203061
0.203046
0.203046
0.203059
0.203019
0.203058
0.203044
0.203043
0.203057
0.203016
0.203056
0.203042
0.203043
0.203057
0.203017
0.203058
0.203045
0.203047
0.203062
0.203023
0.203065
0.203052
0.203054
0.20307
0.203031
0.203073
0.203059
0.20306
0.203074
0.203035
0.203076
0.203064
0.203065
0.203081
0.203042
0.203083
0.203069
0.203068
0.203081
0.20304
0.203078
0.203063
0.203061
0.203073
0.203031
0.203069
0.203053
0.180521
0.180527
0.180501
0.180524
0.180515
0.180515
0.180523
0.1805
0.180523
0.180515
0.180515
0.180523
0.180499
0.180523
0.180515
0.180516
0.180525
0.180502
0.180526
0.180519
0.180522
0.180532
0.18051
0.180536
0.180531
0.180535
0.180546
0.180525
0.18055
0.180542
0.18054
0.180545
0.18052
0.180544
0.180538
0.180542
0.180553
0.180533
0.180558
0.18055
0.180549
0.180554
0.180528
0.180547
0.180537
0.180534
0.180541
0.180516
0.180536
0.180526
0.157134
0.157151
0.157097
0.157149
0.15713
0.157129
0.157148
0.157095
0.157147
0.157128
0.157129
0.157148
0.157096
0.157149
0.15713
0.157131
0.15715
0.157099
0.157152
0.157135
0.157137
0.157158
0.157109
0.157166
0.157152
0.157159
0.157183
0.157133
0.157188
0.157166
0.157162
0.157177
0.157122
0.157172
0.157155
0.15716
0.157181
0.157132
0.157187
0.157169
0.157168
0.157184
0.157129
0.157175
0.157154
0.157151
0.157167
0.157111
0.15716
0.157138
0.138032
0.138029
0.138038
0.13803
0.138031
0.13803
0.138026
0.138034
0.138025
0.138027
0.138027
0.138025
0.138034
0.138026
0.138028
0.138029
0.138028
0.138037
0.13803
0.138033
0.138035
0.138037
0.138052
0.138049
0.138056
0.138062
0.138063
0.138073
0.138065
0.138066
0.138061
0.138055
0.138059
0.138048
0.138051
0.138053
0.138052
0.138063
0.138057
0.138062
0.138064
0.138063
0.138071
0.13806
0.138057
0.138049
0.138044
0.138047
0.138035
0.138034
0.114287
0.114292
0.11428
0.114291
0.114286
0.114285
0.114288
0.114275
0.114287
0.114282
0.114281
0.114284
0.114271
0.114284
0.114281
0.114283
0.11429
0.114278
0.11429
0.114286
0.11429
0.114298
0.114291
0.114309
0.114308
0.114312
0.114317
0.114305
0.114317
0.114312
0.114309
0.114311
0.114297
0.114307
0.114301
0.1143
0.114304
0.114292
0.114305
0.114303
0.114309
0.114317
0.114306
0.114314
0.114305
0.114297
0.114297
0.114282
0.114292
0.114287
0.0959863
0.0959821
0.0959852
0.0959771
0.0959774
0.0959772
0.0959755
0.0959803
0.0959746
0.0959751
0.0959745
0.0959734
0.0959798
0.0959758
0.0959783
0.0959807
0.0959815
0.0959889
0.0959853
0.0959889
0.0959927
0.0959948
0.0960029
0.0959961
0.0959961
0.0959949
0.0959927
0.0959972
0.0959911
0.0959933
0.0959941
0.0959928
0.0959976
0.0959901
0.0959901
0.0959883
0.0959851
0.0959902
0.0959858
0.0959904
0.0959945
0.095996
0.0960022
0.0959948
0.0959937
0.0959919
0.0959886
0.095993
0.0959863
0.0959875
0.0787313
0.0787251
0.0787287
0.0787179
0.0787187
0.0787172
0.0787143
0.0787216
0.0787142
0.0787169
0.0787179
0.0787165
0.0787255
0.0787193
0.0787232
0.0787257
0.0787255
0.0787356
0.0787324
0.078738
0.0787416
0.0787405
0.0787472
0.0787392
0.0787376
0.0787329
0.0787281
0.0787338
0.0787232
0.078724
0.0787232
0.0787205
0.0787276
0.0787199
0.0787224
0.0787228
0.0787214
0.0787305
0.0787251
0.0787302
0.0787342
0.0787349
0.0787452
0.078737
0.0787365
0.0787345
0.0787308
0.0787378
0.0787304
0.0787332
0.0626633
0.06266
0.0626645
0.0626541
0.0626549
0.0626535
0.0626505
0.0626581
0.0626511
0.0626548
0.062657
0.0626565
0.0626664
0.0626633
0.0626694
0.062675
0.0626768
0.0626883
0.062682
0.0626865
0.0626894
0.062687
0.0626935
0.0626834
0.0626831
0.0626786
0.0626727
0.0626744
0.062662
0.0626606
0.0626558
0.0626509
0.062657
0.0626489
0.0626518
0.0626532
0.0626524
0.0626622
0.0626593
0.0626659
0.0626726
0.0626737
0.0626857
0.0626787
0.0626775
0.0626711
0.0626651
0.0626703
0.062661
0.0626633
0.0481586
0.0481588
0.0481658
0.0481582
0.0481555
0.0481487
0.0481439
0.0481487
0.0481426
0.0481466
0.0481517
0.0481542
0.0481663
0.0481702
0.0481817
0.0481968
0.0482094
0.0482366
0.0482376
0.0482406
0.0482304
0.0482155
0.0482074
0.0481817
0.0481744
0.0481624
0.0481525
0.0481495
0.0481371
0.0481349
0.0481319
0.0481276
0.0481321
0.0481244
0.0481264
0.0481273
0.0481266
0.0481352
0.0481336
0.0481399
0.0481474
0.0481509
0.0481639
0.048158
0.0481607
0.0481579
0.0481533
0.0481575
0.0481515
0.0481553
0.0354578
0.0354539
0.0354538
0.0354404
0.0354366
0.0354265
0.0354193
0.0354203
0.0354143
0.0354166
0.0354203
0.0354235
0.0354348
0.0354425
0.0354546
0.0354715
0.0354812
0.0355005
0.0355017
0.0355011
0.0354867
0.0354694
0.0354605
0.0354373
0.0354292
0.0354186
0.0354105
0.0354076
0.0353972
0.0353935
0.0353852
0.0353795
0.035381
0.0353746
0.0353755
0.0353759
0.0353752
0.0353813
0.0353786
0.0353821
0.0353857
0.0353872
0.0353992
0.0354002
0.0354097
0.0354213
0.0354271
0.0354424
0.0354498
0.0354553
0.0246141
0.0246142
0.0246175
0.024601
0.0245921
0.0245775
0.0245728
0.0245723
0.0245677
0.0245687
0.0245695
0.0245704
0.0245778
0.0245826
0.0245919
0.0246073
0.0246159
0.0246238
0.0246202
0.0246126
0.024593
0.0245795
0.0245648
0.024553
0.0245453
0.0245321
0.0245228
0.024523
0.0245188
0.0245183
0.0245165
0.0245169
0.0245226
0.0245195
0.0245196
0.0245218
0.0245226
0.0245293
0.0245276
0.0245303
0.0245322
0.0245317
0.0245377
0.0245353
0.0245379
0.0245418
0.0245461
0.0245607
0.0245794
0.0245973
0.0155869
0.0155866
0.0155932
0.0155912
0.0155934
0.0155959
0.0155954
0.015605
0.0156037
0.0156084
0.0156099
0.0156111
0.01562
0.0156263
0.0156348
0.0156397
0.0156351
0.0156348
0.0156244
0.0156234
0.0156124
0.0156022
0.0156004
0.0155866
0.0155811
0.0155757
0.0155733
0.015571
0.01556
0.015557
0.0155587
0.0155578
0.0155644
0.0155619
0.0155676
0.0155715
0.0155711
0.0155792
0.015577
0.0155821
0.0155877
0.0155907
0.0156024
0.0156032
0.0156094
0.0156081
0.015602
0.0156041
0.0155947
0.0155911
0.00860002
0.0085902
0.00858863
0.00857533
0.00857076
0.00856031
0.00855342
0.00854591
0.00853503
0.00852474
0.0085093
0.00849512
0.00848389
0.00846475
0.00847258
0.0084892
0.00850097
0.00851385
0.00851558
0.00851773
0.00851551
0.00851167
0.00850944
0.00849446
0.00848252
0.00846059
0.00844117
0.00842186
0.00841223
0.00841688
0.00843778
0.00845747
0.00848126
0.0084889
0.00849831
0.0085124
0.00852086
0.0085383
0.00854225
0.0085491
0.00855941
0.00856498
0.00857865
0.00858197
0.00858936
0.00860018
0.00860909
0.00862088
0.00861444
0.00861036
0.00331659
0.00331483
0.00331585
0.00330935
0.00330816
0.003308
0.00330453
0.00330492
0.00329618
0.00328935
0.00328489
0.00328408
0.00328725
0.00329606
0.00330317
0.00331712
0.00331442
0.00330483
0.00329836
0.00329543
0.00329497
0.00329389
0.00329543
0.00328538
0.00328489
0.00327891
0.00327488
0.00327528
0.00326858
0.00326502
0.00326033
0.00326314
0.0032761
0.00327976
0.00328548
0.00328904
0.00328832
0.00329579
0.00329827
0.00330491
0.00331944
0.00332714
0.00334052
0.00334238
0.00334906
0.00335373
0.00335229
0.00334823
0.00333597
0.00332707
-0.000330979
-0.000337534
-0.000335251
-0.000331956
-0.000326853
-0.000323569
-0.000326924
-0.000332071
-0.00033208
-0.000329404
-0.000334071
-0.000333475
-0.000335446
-0.000342985
-0.000347682
-0.000348905
-0.000348573
-0.000349699
-0.000348716
-0.000349255
-0.000345369
-0.000342399
-0.00034102
-0.000341533
-0.000346136
-0.000342393
-0.000341604
-0.000347559
-0.000358231
-0.000359749
-0.000356874
-0.000356357
-0.000349616
-0.000347011
-0.000342678
-0.000338351
-0.00033523
-0.00033232
-0.000331556
-0.000328969
-0.000326477
-0.000320227
-0.000317443
-0.00031384
-0.000307464
-0.000299406
-0.000296858
-0.00029545
-0.000302467
-0.000313712
-0.002232
-0.00223128
-0.00223573
-0.00225668
-0.00226968
-0.00228109
-0.00228889
-0.00229463
-0.00229681
-0.00229591
-0.00229796
-0.00230216
-0.00230869
-0.00231917
-0.00232363
-0.00232531
-0.002322
-0.00231403
-0.00231702
-0.00231796
-0.00231875
-0.0023203
-0.00232083
-0.00232163
-0.0023191
-0.00232014
-0.00232185
-0.00231603
-0.00231597
-0.00232109
-0.00232045
-0.00232302
-0.00232283
-0.00232508
-0.00232238
-0.00231712
-0.00231353
-0.00230973
-0.00231199
-0.00231385
-0.0023165
-0.00231369
-0.00230669
-0.00229788
-0.00229243
-0.00229105
-0.00228845
-0.00227811
-0.00226578
-0.00224767
-0.00428869
-0.00428552
-0.00427793
-0.00427801
-0.00427222
-0.00426416
-0.00425592
-0.00423989
-0.00422576
-0.00421114
-0.00419189
-0.00417882
-0.00416046
-0.00416023
-0.0041582
-0.0041764
-0.00418979
-0.00420283
-0.00422957
-0.00424282
-0.00425726
-0.00426752
-0.00427016
-0.00428761
-0.00429526
-0.0043035
-0.0043094
-0.00430436
-0.00430657
-0.004309
-0.00431292
-0.00431555
-0.00431385
-0.00431699
-0.00431684
-0.00431818
-0.00431751
-0.00431493
-0.00432386
-0.0043234
-0.00431952
-0.00432023
-0.00431684
-0.00431631
-0.00430933
-0.00430481
-0.00430455
-0.00430004
-0.00430285
-0.0042956
-0.00587326
-0.00587161
-0.00586684
-0.00586905
-0.0058706
-0.00587095
-0.00586682
-0.00585795
-0.0058507
-0.00583986
-0.00582119
-0.0058047
-0.00577552
-0.00575732
-0.00574806
-0.00574583
-0.0057571
-0.0057936
-0.00582088
-0.00583941
-0.00586354
-0.00587831
-0.00589831
-0.00590579
-0.00591434
-0.00592853
-0.00593931
-0.00595781
-0.00596596
-0.00597552
-0.00598694
-0.00599001
-0.00599247
-0.00598898
-0.00597595
-0.00595734
-0.00594744
-0.00593965
-0.00593152
-0.00592754
-0.00592362
-0.00591926
-0.00591668
-0.00591575
-0.00591322
-0.00590982
-0.00590492
-0.00590062
-0.00588572
-0.00587415
-0.00741076
-0.00740842
-0.00740278
-0.0073987
-0.00739469
-0.00738202
-0.00737325
-0.00736028
-0.00735255
-0.00734341
-0.00732726
-0.00731294
-0.00729489
-0.00727895
-0.00727257
-0.007266
-0.00727909
-0.00730514
-0.0073227
-0.00733695
-0.00735594
-0.00736595
-0.00737157
-0.00737367
-0.00737666
-0.00738147
-0.0073812
-0.00737669
-0.0073785
-0.0073749
-0.00735887
-0.00735352
-0.00735535
-0.00736409
-0.00736863
-0.00738316
-0.00739132
-0.00739814
-0.00740558
-0.00740844
-0.00741042
-0.00741385
-0.00741727
-0.00742143
-0.00742358
-0.00742299
-0.00742118
-0.00741569
-0.0074142
-0.00741224
0.206707
0.206719
0.206674
0.206717
0.206703
0.206703
0.206715
0.206671
0.206714
0.206701
0.2067
0.206713
0.206669
0.206713
0.2067
0.206701
0.206714
0.20667
0.206715
0.206703
0.206704
0.206718
0.206674
0.20672
0.206708
0.206709
0.206723
0.20668
0.206724
0.206712
0.206713
0.206727
0.206683
0.206727
0.206715
0.206715
0.206729
0.206685
0.206729
0.206716
0.206716
0.206729
0.206684
0.206727
0.206713
0.206712
0.206724
0.20668
0.206722
0.206708
0.18703
0.187034
0.18701
0.187032
0.187026
0.187025
0.187031
0.187007
0.18703
0.187024
0.187024
0.18703
0.187006
0.18703
0.187024
0.187025
0.187031
0.187008
0.187032
0.187027
0.187028
0.187035
0.187013
0.187038
0.187033
0.187035
0.187042
0.187019
0.187043
0.187038
0.187039
0.187045
0.187022
0.187046
0.18704
0.18704
0.187046
0.187023
0.187047
0.187041
0.187041
0.187046
0.187022
0.187044
0.187037
0.187036
0.187041
0.187016
0.187038
0.187031
0.166258
0.166283
0.16621
0.16628
0.166254
0.166253
0.166279
0.166206
0.166278
0.166252
0.166252
0.166278
0.166206
0.166278
0.166253
0.166254
0.16628
0.166209
0.166282
0.166257
0.166258
0.166286
0.166216
0.166289
0.166264
0.166266
0.166293
0.166222
0.166294
0.166269
0.166269
0.166295
0.166223
0.166295
0.166269
0.166269
0.166295
0.166223
0.166296
0.16627
0.16627
0.166295
0.166223
0.166293
0.166266
0.166265
0.166289
0.166215
0.166286
0.166259
0.148773
0.148777
0.14877
0.148775
0.14877
0.148769
0.148773
0.148767
0.148772
0.148767
0.148768
0.148772
0.148767
0.148773
0.148769
0.148769
0.148775
0.14877
0.148777
0.148773
0.148775
0.148781
0.148777
0.148784
0.148781
0.148782
0.148788
0.148783
0.148789
0.148785
0.148784
0.148789
0.148784
0.148789
0.148784
0.148784
0.148789
0.148784
0.14879
0.148784
0.148784
0.148789
0.148782
0.148787
0.148781
0.148779
0.148783
0.148775
0.14878
0.148774
0.126648
0.126655
0.126633
0.126653
0.126646
0.126645
0.126652
0.126631
0.126651
0.126644
0.126644
0.126651
0.12663
0.126651
0.126645
0.126646
0.126654
0.126634
0.126656
0.12665
0.126651
0.126659
0.12664
0.126662
0.126656
0.126657
0.126665
0.126645
0.126665
0.126659
0.126658
0.126665
0.126644
0.126664
0.126657
0.126657
0.126664
0.126643
0.126664
0.126657
0.126657
0.126664
0.126643
0.126663
0.126655
0.126654
0.12666
0.126638
0.126657
0.126649
0.109133
0.109124
0.109135
0.109123
0.10913
0.10913
0.109121
0.109132
0.109121
0.109129
0.109129
0.109121
0.109132
0.109122
0.109131
0.109132
0.109125
0.109136
0.109127
0.109136
0.109137
0.10913
0.109141
0.109131
0.10914
0.10914
0.109132
0.109143
0.109132
0.109139
0.109139
0.109131
0.109141
0.10913
0.109138
0.109137
0.109129
0.10914
0.10913
0.109138
0.109139
0.109131
0.109142
0.109131
0.109138
0.109137
0.109129
0.109139
0.109127
0.109134
0.0923115
0.0923114
0.0923099
0.0923094
0.0923081
0.0923075
0.0923078
0.092307
0.0923078
0.0923074
0.092308
0.0923092
0.0923093
0.0923112
0.0923115
0.092313
0.0923147
0.092315
0.0923169
0.0923171
0.0923178
0.0923186
0.092318
0.0923187
0.0923179
0.0923173
0.0923172
0.0923157
0.0923153
0.0923139
0.0923129
0.092313
0.0923119
0.0923121
0.0923113
0.0923112
0.0923121
0.092312
0.0923132
0.0923133
0.0923142
0.0923154
0.0923151
0.0923159
0.0923152
0.0923147
0.092315
0.0923138
0.0923137
0.0923124
0.076248
0.0762467
0.0762482
0.0762454
0.0762456
0.0762451
0.0762442
0.0762467
0.0762449
0.0762464
0.0762479
0.0762485
0.0762523
0.0762525
0.0762552
0.0762581
0.0762592
0.0762637
0.0762627
0.0762641
0.0762638
0.0762624
0.076263
0.0762591
0.0762581
0.0762554
0.0762526
0.0762528
0.0762477
0.0762467
0.0762445
0.0762426
0.0762437
0.0762409
0.0762415
0.0762418
0.0762416
0.0762451
0.0762438
0.0762456
0.076247
0.076247
0.0762504
0.0762487
0.0762499
0.0762498
0.0762487
0.0762507
0.076248
0.0762485
0.0613791
0.0613781
0.0613805
0.0613774
0.0613781
0.0613776
0.0613766
0.0613793
0.0613774
0.0613794
0.0613816
0.0613827
0.0613889
0.061389
0.0613926
0.0613963
0.0613974
0.0614011
0.0613985
0.0613992
0.061399
0.0613971
0.0613967
0.0613913
0.0613888
0.0613839
0.0613797
0.0613792
0.0613722
0.0613705
0.0613672
0.0613645
0.0613658
0.0613618
0.0613624
0.0613624
0.061362
0.0613655
0.0613645
0.0613668
0.0613689
0.0613694
0.0613737
0.0613721
0.0613742
0.0613758
0.0613758
0.0613794
0.0613775
0.0613788
0.0480229
0.0480234
0.0480246
0.0480224
0.0480216
0.0480199
0.0480187
0.0480192
0.0480183
0.0480194
0.0480215
0.0480231
0.0480278
0.0480296
0.048033
0.0480373
0.0480394
0.0480424
0.0480415
0.0480409
0.0480374
0.0480335
0.0480279
0.048022
0.0480177
0.0480113
0.0480069
0.0480045
0.0479988
0.0479964
0.0479932
0.047991
0.0479906
0.0479881
0.047988
0.047988
0.047988
0.0479897
0.0479901
0.0479918
0.0479942
0.0479958
0.047999
0.0480015
0.0480044
0.0480077
0.0480101
0.0480142
0.0480176
0.0480205
0.0363289
0.0363299
0.0363307
0.0363322
0.036332
0.0363313
0.0363308
0.03633
0.0363304
0.0363306
0.0363317
0.036333
0.0363341
0.0363368
0.0363383
0.0363392
0.036339
0.0363373
0.036336
0.036335
0.036332
0.036329
0.036325
0.0363198
0.0363159
0.0363114
0.0363088
0.0363048
0.0363028
0.0363006
0.0362982
0.0362971
0.0362956
0.0362957
0.0362957
0.0362963
0.0362969
0.0362974
0.0362994
0.0363007
0.036303
0.036305
0.0363065
0.0363104
0.036313
0.0363171
0.0363204
0.0363231
0.0363266
0.0363276
0.0263946
0.0263951
0.0263943
0.0263941
0.0263932
0.0263922
0.0263918
0.026391
0.026391
0.0263908
0.026391
0.0263915
0.0263917
0.0263926
0.0263929
0.0263932
0.0263931
0.0263918
0.0263899
0.0263872
0.026383
0.0263798
0.0263742
0.0263709
0.0263673
0.0263622
0.026359
0.0263552
0.026354
0.0263529
0.0263531
0.0263543
0.0263555
0.0263585
0.0263602
0.0263632
0.0263657
0.0263687
0.0263717
0.0263741
0.0263776
0.0263802
0.0263827
0.0263847
0.0263857
0.0263868
0.0263878
0.0263883
0.0263911
0.0263927
0.0182463
0.0182406
0.0182447
0.0182352
0.0182371
0.0182336
0.0182264
0.0182294
0.0182188
0.01822
0.0182158
0.0182082
0.0182129
0.0182071
0.018212
0.0182104
0.0182054
0.0182118
0.0182054
0.0182086
0.0182063
0.0181998
0.0182033
0.0181931
0.0181942
0.0181905
0.0181841
0.01819
0.0181841
0.018189
0.0181894
0.0181864
0.0181955
0.0181942
0.0182028
0.0182084
0.0182081
0.0182198
0.018218
0.0182263
0.0182314
0.0182307
0.0182413
0.018238
0.0182451
0.0182472
0.0182433
0.0182493
0.0182432
0.0182472
0.0119003
0.0118972
0.0118949
0.0118914
0.0118897
0.0118863
0.0118842
0.0118825
0.0118789
0.011877
0.0118737
0.0118716
0.0118703
0.0118675
0.0118646
0.0118632
0.0118642
0.0118669
0.0118668
0.0118672
0.0118669
0.0118663
0.011866
0.0118642
0.0118628
0.0118605
0.0118589
0.0118578
0.0118572
0.011858
0.0118598
0.0118608
0.0118628
0.0118657
0.0118684
0.0118724
0.011875
0.0118785
0.0118829
0.0118867
0.011892
0.0118955
0.0118994
0.0119031
0.0119052
0.0119069
0.0119066
0.011907
0.0119056
0.011904
0.00720296
0.00720101
0.00719803
0.00719603
0.00719441
0.00719234
0.00719147
0.00718997
0.00718881
0.00718746
0.00718637
0.0071852
0.0071835
0.00718257
0.00718133
0.00717955
0.00717826
0.00717658
0.00717641
0.00717602
0.00717566
0.00717561
0.00717504
0.007175
0.00717479
0.0071734
0.00717251
0.00717114
0.00717118
0.00717086
0.00717135
0.00717261
0.00717291
0.00717536
0.00717655
0.00717876
0.00718041
0.00718231
0.00718458
0.00718606
0.00718936
0.00719154
0.00719352
0.0071977
0.00719938
0.00720183
0.00720314
0.007203
0.00720372
0.00720323
0.00459098
0.00459169
0.00459235
0.00459272
0.0045921
0.00459019
0.00458882
0.00458676
0.00458567
0.00458446
0.00458252
0.00458114
0.0045786
0.00457766
0.00457627
0.00457473
0.00457374
0.00457215
0.00457181
0.00457089
0.00456951
0.0045687
0.00456724
0.00456682
0.0045662
0.00456603
0.00456629
0.0045652
0.0045651
0.00456501
0.00456403
0.00456389
0.0045635
0.00456408
0.00456447
0.00456567
0.00456669
0.00456816
0.0045695
0.00457068
0.00457266
0.00457413
0.00457616
0.00457791
0.0045794
0.00458227
0.00458422
0.00458574
0.00458883
0.00458967
0.00182414
0.00182711
0.00183172
0.00183516
0.00183895
0.00184483
0.00184925
0.00185405
0.00186052
0.00186533
0.00187137
0.00187494
0.00187804
0.00187977
0.00187997
0.0018775
0.00187247
0.00186682
0.0018582
0.00185183
0.00184344
0.00183771
0.00183019
0.00182544
0.00182096
0.00181519
0.00181172
0.00180745
0.00180463
0.00180252
0.00179962
0.00179765
0.00179642
0.00179473
0.00179416
0.00179358
0.00179316
0.00179321
0.00179388
0.00179465
0.00179583
0.00179737
0.0018002
0.00180227
0.00180449
0.00180789
0.00181049
0.00181325
0.00181728
0.00181995
-0.00038995
-0.00038725
-0.000383946
-0.000381794
-0.000379787
-0.000376414
-0.000373878
-0.000370376
-0.000364675
-0.000360208
-0.000353076
-0.000348676
-0.000343348
-0.000341839
-0.000341555
-0.000344005
-0.000347411
-0.000352122
-0.000361961
-0.000369912
-0.000381925
-0.000389707
-0.000396837
-0.00040749
-0.000413931
-0.000423038
-0.000428775
-0.000436072
-0.000440622
-0.000444009
-0.000447259
-0.000448898
-0.000449182
-0.000448293
-0.00044701
-0.000443231
-0.000440089
-0.000436793
-0.000432289
-0.000429323
-0.000425153
-0.00042276
-0.000418922
-0.000416293
-0.000413626
-0.000409189
-0.000406032
-0.000400696
-0.000397471
-0.000394611
-0.00210463
-0.00210254
-0.00209784
-0.0020953
-0.00209136
-0.00208562
-0.00208152
-0.00207623
-0.00207011
-0.00206514
-0.00205844
-0.00205463
-0.00205074
-0.00204822
-0.00204751
-0.00204869
-0.00205017
-0.00205205
-0.00205843
-0.00206294
-0.00206974
-0.00207418
-0.00207735
-0.00208283
-0.00208513
-0.00208787
-0.0020896
-0.00209022
-0.00209163
-0.00209191
-0.00209333
-0.00209483
-0.00209505
-0.0020971
-0.00209856
-0.00210113
-0.00210343
-0.00210589
-0.00210825
-0.00210963
-0.00211176
-0.00211299
-0.0021135
-0.0021146
-0.00211436
-0.00211373
-0.00211304
-0.0021113
-0.00210967
-0.00210772
0.205852
0.205861
0.205834
0.20586
0.20585
0.20585
0.205859
0.205832