/*--------------------------------*- C++ -*----------------------------------*\
| =========                 |                                                 |
| \\      /  F ield         | OpenFOAM: The Open Source CFD Toolbox           |
|  \\    /   O peration     | Version:  4.x                                   |
|   \\  /    A nd           | Web:      www.OpenFOAM.org                      |
|    \\/     M anipulation  |                                                 |
\*---------------------------------------------------------------------------*/
FoamFile
{
    version     2.0;
    format      ascii;
    class       volScalarField;
    location    "60";
    object      p;
}
// * * * * * * * * * * * * * * * * * * * * * * * * * * * * * * * * * * * * * //

dimensions      [0 2 -2 0 0 0 0];

internalField   nonuniform List<scalar> 
410400
(
0.20607
0.206065
0.206061
0.206058
0.206058
0.206058
0.206061
0.206065
0.20607
0.206077
0.206085
0.206094
0.206104
0.206115
0.206127
0.206139
0.206152
0.206164
0.206177
0.206189
0.206201
0.206212
0.206222
0.206232
0.20624
0.206247
0.206252
0.206256
0.206258
0.206259
0.206258
0.206256
0.206252
0.206247
0.20624
0.206232
0.206223
0.206212
0.206201
0.206189
0.206177
0.206165
0.206152
0.206139
0.206127
0.206115
0.206104
0.206094
0.206085
0.206077
0.183903
0.183899
0.183896
0.183894
0.183893
0.183894
0.183896
0.183899
0.183903
0.183908
0.183915
0.183922
0.18393
0.183939
0.183948
0.183958
0.183968
0.183978
0.183988
0.183998
0.184007
0.184016
0.184024
0.184032
0.184038
0.184044
0.184048
0.184051
0.184053
0.184054
0.184053
0.184051
0.184048
0.184044
0.184038
0.184032
0.184024
0.184016
0.184007
0.183998
0.183988
0.183978
0.183968
0.183958
0.183949
0.183939
0.18393
0.183922
0.183915
0.183908
0.165872
0.165869
0.165867
0.165865
0.165865
0.165865
0.165867
0.165869
0.165872
0.165876
0.165881
0.165887
0.165893
0.1659
0.165907
0.165915
0.165922
0.16593
0.165938
0.165945
0.165953
0.165959
0.165966
0.165971
0.165976
0.165981
0.165984
0.165986
0.165988
0.165988
0.165988
0.165986
0.165984
0.165981
0.165976
0.165971
0.165966
0.16596
0.165953
0.165945
0.165938
0.16593
0.165923
0.165915
0.165907
0.1659
0.165893
0.165887
0.165881
0.165876
0.148024
0.148022
0.14802
0.148019
0.148019
0.148019
0.14802
0.148022
0.148024
0.148027
0.148031
0.148035
0.14804
0.148045
0.14805
0.148056
0.148061
0.148067
0.148073
0.148078
0.148084
0.148089
0.148093
0.148098
0.148101
0.148104
0.148107
0.148109
0.14811
0.14811
0.14811
0.148109
0.148107
0.148104
0.148101
0.148098
0.148093
0.148089
0.148084
0.148078
0.148073
0.148067
0.148061
0.148056
0.14805
0.148045
0.14804
0.148035
0.148031
0.148027
0.132431
0.132429
0.132428
0.132427
0.132427
0.132427
0.132428
0.132429
0.132431
0.132433
0.132435
0.132438
0.132442
0.132445
0.132449
0.132453
0.132457
0.132461
0.132465
0.132469
0.132473
0.132476
0.132479
0.132482
0.132485
0.132487
0.132489
0.13249
0.132491
0.132491
0.132491
0.13249
0.132489
0.132487
0.132485
0.132482
0.132479
0.132476
0.132473
0.132469
0.132465
0.132461
0.132457
0.132453
0.132449
0.132445
0.132442
0.132438
0.132435
0.132433
0.11796
0.117958
0.117958
0.117957
0.117957
0.117957
0.117958
0.117958
0.117959
0.117961
0.117963
0.117965
0.117967
0.117969
0.117972
0.117974
0.117977
0.11798
0.117982
0.117985
0.117988
0.11799
0.117992
0.117994
0.117996
0.117997
0.117998
0.117999
0.118
0.118
0.118
0.117999
0.117998
0.117997
0.117996
0.117994
0.117992
0.11799
0.117988
0.117985
0.117982
0.11798
0.117977
0.117974
0.117972
0.117969
0.117967
0.117965
0.117963
0.117961
0.105459
0.105458
0.105458
0.105457
0.105457
0.105457
0.105458
0.105458
0.105459
0.10546
0.105461
0.105462
0.105464
0.105465
0.105467
0.105468
0.10547
0.105472
0.105474
0.105475
0.105477
0.105478
0.10548
0.105481
0.105482
0.105483
0.105484
0.105484
0.105485
0.105485
0.105485
0.105484
0.105484
0.105483
0.105482
0.105481
0.10548
0.105478
0.105477
0.105475
0.105474
0.105472
0.10547
0.105468
0.105467
0.105465
0.105464
0.105462
0.105461
0.10546
0.0942847
0.0942843
0.094284
0.0942838
0.0942837
0.0942838
0.094284
0.0942843
0.0942847
0.0942853
0.0942859
0.0942867
0.0942875
0.0942884
0.0942894
0.0942904
0.0942914
0.0942924
0.0942934
0.0942944
0.0942954
0.0942963
0.0942971
0.0942979
0.0942985
0.0942991
0.0942995
0.0942998
0.0943
0.0943001
0.0943
0.0942998
0.0942995
0.0942991
0.0942985
0.0942979
0.0942971
0.0942963
0.0942954
0.0942944
0.0942934
0.0942924
0.0942914
0.0942904
0.0942894
0.0942884
0.0942875
0.0942867
0.0942859
0.0942853
0.0848299
0.0848296
0.0848295
0.0848294
0.0848293
0.0848294
0.0848295
0.0848296
0.0848299
0.0848302
0.0848306
0.084831
0.0848314
0.084832
0.0848325
0.084833
0.0848336
0.0848342
0.0848348
0.0848353
0.0848359
0.0848364
0.0848368
0.0848373
0.0848376
0.0848379
0.0848382
0.0848384
0.0848385
0.0848385
0.0848385
0.0848384
0.0848382
0.084838
0.0848376
0.0848373
0.0848369
0.0848364
0.0848359
0.0848353
0.0848348
0.0848342
0.0848336
0.0848331
0.0848325
0.084832
0.0848315
0.084831
0.0848306
0.0848302
0.0766621
0.076662
0.0766619
0.0766618
0.0766618
0.0766618
0.0766619
0.076662
0.0766621
0.0766623
0.0766625
0.0766627
0.0766629
0.0766632
0.0766635
0.0766638
0.0766641
0.0766644
0.0766647
0.076665
0.0766653
0.0766655
0.0766658
0.076666
0.0766662
0.0766664
0.0766665
0.0766666
0.0766666
0.0766667
0.0766667
0.0766666
0.0766665
0.0766664
0.0766662
0.076666
0.0766658
0.0766655
0.0766653
0.076665
0.0766647
0.0766644
0.0766641
0.0766638
0.0766635
0.0766632
0.0766629
0.0766627
0.0766625
0.0766623
0.0698976
0.0698976
0.0698975
0.0698975
0.0698975
0.0698975
0.0698975
0.0698976
0.0698976
0.0698977
0.0698978
0.0698979
0.069898
0.0698982
0.0698983
0.0698985
0.0698986
0.0698988
0.0698989
0.0698991
0.0698992
0.0698993
0.0698994
0.0698996
0.0698997
0.0698997
0.0698998
0.0698998
0.0698999
0.0698999
0.0698999
0.0698998
0.0698998
0.0698997
0.0698997
0.0698996
0.0698994
0.0698993
0.0698992
0.0698991
0.0698989
0.0698988
0.0698986
0.0698985
0.0698983
0.0698982
0.069898
0.0698979
0.0698978
0.0698977
0.0642868
0.0642867
0.0642867
0.0642867
0.0642867
0.0642867
0.0642867
0.0642867
0.0642868
0.0642868
0.0642868
0.0642869
0.0642869
0.064287
0.0642871
0.0642871
0.0642872
0.0642873
0.0642873
0.0642874
0.0642875
0.0642875
0.0642876
0.0642876
0.0642877
0.0642877
0.0642877
0.0642878
0.0642878
0.0642878
0.0642878
0.0642878
0.0642877
0.0642877
0.0642877
0.0642876
0.0642876
0.0642875
0.0642875
0.0642874
0.0642873
0.0642873
0.0642872
0.0642871
0.0642871
0.064287
0.0642869
0.0642869
0.0642868
0.0642868
0.0597104
0.0597104
0.0597103
0.0597103
0.0597103
0.0597103
0.0597104
0.0597104
0.0597104
0.0597104
0.0597104
0.0597104
0.0597105
0.0597105
0.0597105
0.0597105
0.0597106
0.0597106
0.0597106
0.0597107
0.0597107
0.0597107
0.0597107
0.0597108
0.0597108
0.0597108
0.0597108
0.0597108
0.0597108
0.0597108
0.0597108
0.0597108
0.0597108
0.0597108
0.0597108
0.0597108
0.0597107
0.0597107
0.0597107
0.0597107
0.0597106
0.0597106
0.0597106
0.0597105
0.0597105
0.0597105
0.0597105
0.0597104
0.0597104
0.0597104
0.0561798
0.0561798
0.0561798
0.0561798
0.0561798
0.0561798
0.0561798
0.0561798
0.0561798
0.0561798
0.0561798
0.0561798
0.0561798
0.0561798
0.0561798
0.0561798
0.0561798
0.0561799
0.0561799
0.0561799
0.0561799
0.0561799
0.0561799
0.0561799
0.0561799
0.0561799
0.0561799
0.0561799
0.0561799
0.0561799
0.0561799
0.0561799
0.0561799
0.0561799
0.0561799
0.0561799
0.0561799
0.0561799
0.0561799
0.0561799
0.0561799
0.0561799
0.0561798
0.0561798
0.0561798
0.0561798
0.0561798
0.0561798
0.0561798
0.0561798
0.0532509
0.0532509
0.0532509
0.0532509
0.0532509
0.0532509
0.0532509
0.0532509
0.0532509
0.0532509
0.0532509
0.0532509
0.0532509
0.0532509
0.0532509
0.0532509
0.0532509
0.053251
0.053251
0.053251
0.053251
0.053251
0.053251
0.053251
0.053251
0.053251
0.053251
0.053251
0.053251
0.053251
0.053251
0.053251
0.053251
0.053251
0.053251
0.053251
0.053251
0.053251
0.053251
0.053251
0.053251
0.053251
0.0532509
0.0532509
0.0532509
0.0532509
0.0532509
0.0532509
0.0532509
0.0532509
0.0513886
0.0513886
0.0513886
0.0513886
0.0513886
0.0513886
0.0513886
0.0513886
0.0513886
0.0513886
0.0513886
0.0513886
0.0513886
0.0513886
0.0513886
0.0513886
0.0513886
0.0513886
0.0513886
0.0513886
0.0513886
0.0513886
0.0513886
0.0513886
0.0513886
0.0513886
0.0513886
0.0513886
0.0513886
0.0513886
0.0513886
0.0513886
0.0513886
0.0513886
0.0513886
0.0513886
0.0513886
0.0513886
0.0513886
0.0513886
0.0513886
0.0513886
0.0513886
0.0513886
0.0513886
0.0513886
0.0513886
0.0513886
0.0513886
0.0513886
0.0495866
0.0495866
0.0495866
0.0495866
0.0495866
0.0495866
0.0495866
0.0495866
0.0495866
0.0495866
0.0495866
0.0495866
0.0495866
0.0495866
0.0495866
0.0495866
0.0495866
0.0495866
0.0495866
0.0495866
0.0495866
0.0495866
0.0495866
0.0495866
0.0495866
0.0495866
0.0495866
0.0495866
0.0495867
0.0495867
0.0495867
0.0495867
0.0495867
0.0495867
0.0495867
0.0495867
0.0495867
0.0495867
0.0495867
0.0495866
0.0495866
0.0495866
0.0495866
0.0495866
0.0495866
0.0495866
0.0495866
0.0495866
0.0495866
0.0495866
0.0491939
0.0491939
0.0491939
0.0491939
0.0491939
0.0491939
0.0491939
0.0491939
0.0491939
0.0491939
0.0491939
0.0491939
0.0491939
0.0491939
0.0491939
0.0491939
0.0491939
0.0491939
0.0491939
0.0491939
0.0491939
0.0491939
0.0491939
0.0491939
0.0491939
0.0491939
0.0491939
0.0491939
0.0491939
0.0491939
0.0491939
0.0491939
0.0491939
0.0491939
0.0491939
0.0491939
0.0491939
0.0491939
0.0491939
0.0491939
0.0491939
0.0491939
0.0491939
0.0491939
0.0491939
0.0491939
0.0491939
0.0491939
0.0491939
0.0491939
0.0482077
0.0482077
0.0482077
0.0482077
0.0482077
0.0482077
0.0482077
0.0482077
0.0482077
0.0482077
0.0482077
0.0482077
0.0482077
0.0482077
0.0482077
0.0482077
0.0482077
0.0482077
0.0482077
0.0482077
0.0482077
0.0482077
0.0482077
0.0482077
0.0482077
0.0482077
0.0482077
0.0482077
0.0482077
0.0482077
0.0482077
0.0482077
0.0482077
0.0482077
0.0482077
0.0482077
0.0482077
0.0482077
0.0482077
0.0482077
0.0482077
0.0482077
0.0482077
0.0482077
0.0482077
0.0482077
0.0482077
0.0482077
0.0482077
0.0482077
0.213101
0.213098
0.213096
0.213094
0.213094
0.213094
0.213096
0.213098
0.213101
0.213105
0.21311
0.213115
0.213121
0.213127
0.213134
0.213141
0.213148
0.213155
0.213162
0.213169
0.213176
0.213183
0.213188
0.213194
0.213198
0.213202
0.213205
0.213208
0.213209
0.213209
0.213209
0.213208
0.213205
0.213202
0.213198
0.213194
0.213188
0.213183
0.213176
0.213169
0.213162
0.213155
0.213148
0.213141
0.213134
0.213127
0.213121
0.213115
0.213109
0.213105
0.195086
0.195084
0.195082
0.195081
0.19508
0.195081
0.195082
0.195084
0.195086
0.19509
0.195093
0.195098
0.195103
0.195108
0.195113
0.195119
0.195125
0.195131
0.195137
0.195143
0.195148
0.195153
0.195158
0.195163
0.195166
0.19517
0.195172
0.195174
0.195175
0.195175
0.195175
0.195174
0.195172
0.19517
0.195166
0.195163
0.195158
0.195153
0.195148
0.195143
0.195137
0.195131
0.195125
0.195119
0.195113
0.195108
0.195102
0.195098
0.195093
0.19509
0.178353
0.178351
0.178349
0.178348
0.178348
0.178348
0.178349
0.178351
0.178353
0.178355
0.178358
0.178362
0.178366
0.17837
0.178374
0.178379
0.178383
0.178388
0.178393
0.178397
0.178402
0.178406
0.17841
0.178413
0.178416
0.178419
0.178421
0.178422
0.178423
0.178423
0.178423
0.178422
0.178421
0.178419
0.178416
0.178413
0.17841
0.178406
0.178402
0.178397
0.178393
0.178388
0.178383
0.178379
0.178374
0.17837
0.178366
0.178362
0.178358
0.178355
0.161583
0.161581
0.16158
0.16158
0.161579
0.16158
0.16158
0.161581
0.161583
0.161585
0.161587
0.16159
0.161593
0.161596
0.161599
0.161603
0.161606
0.16161
0.161613
0.161617
0.16162
0.161623
0.161626
0.161629
0.161631
0.161633
0.161634
0.161635
0.161636
0.161636
0.161636
0.161635
0.161634
0.161633
0.161631
0.161629
0.161626
0.161623
0.16162
0.161617
0.161613
0.16161
0.161606
0.161603
0.161599
0.161596
0.161593
0.16159
0.161587
0.161585
0.146187
0.146186
0.146185
0.146184
0.146184
0.146184
0.146185
0.146186
0.146187
0.146188
0.14619
0.146192
0.146194
0.146196
0.146198
0.146201
0.146203
0.146206
0.146209
0.146211
0.146213
0.146216
0.146218
0.14622
0.146221
0.146223
0.146224
0.146225
0.146225
0.146225
0.146225
0.146225
0.146224
0.146223
0.146221
0.14622
0.146218
0.146216
0.146214
0.146211
0.146209
0.146206
0.146203
0.146201
0.146198
0.146196
0.146194
0.146192
0.14619
0.146188
0.13159
0.131589
0.131589
0.131589
0.131588
0.131589
0.131589
0.131589
0.13159
0.131591
0.131592
0.131594
0.131595
0.131597
0.131598
0.1316
0.131602
0.131604
0.131605
0.131607
0.131609
0.13161
0.131612
0.131613
0.131614
0.131615
0.131616
0.131616
0.131617
0.131617
0.131617
0.131616
0.131616
0.131615
0.131614
0.131613
0.131612
0.13161
0.131609
0.131607
0.131605
0.131604
0.131602
0.1316
0.131598
0.131597
0.131595
0.131594
0.131592
0.131591
0.118494
0.118493
0.118493
0.118493
0.118493
0.118493
0.118493
0.118493
0.118494
0.118495
0.118495
0.118496
0.118497
0.118498
0.118499
0.1185
0.118501
0.118503
0.118504
0.118505
0.118506
0.118507
0.118508
0.118509
0.11851
0.11851
0.118511
0.118511
0.118511
0.118511
0.118511
0.118511
0.118511
0.11851
0.11851
0.118509
0.118508
0.118507
0.118506
0.118505
0.118504
0.118503
0.118502
0.1185
0.118499
0.118498
0.118497
0.118496
0.118495
0.118495
0.106589
0.106589
0.106589
0.106589
0.106589
0.106589
0.106589
0.106589
0.106589
0.10659
0.10659
0.106591
0.106591
0.106592
0.106593
0.106593
0.106594
0.106595
0.106595
0.106596
0.106597
0.106597
0.106598
0.106599
0.106599
0.106599
0.1066
0.1066
0.1066
0.1066
0.1066
0.1066
0.1066
0.106599
0.106599
0.106599
0.106598
0.106597
0.106597
0.106596
0.106595
0.106595
0.106594
0.106593
0.106593
0.106592
0.106591
0.106591
0.10659
0.10659
0.0961912
0.096191
0.0961909
0.0961908
0.0961908
0.0961908
0.0961909
0.096191
0.0961912
0.0961914
0.0961916
0.0961919
0.0961923
0.0961926
0.096193
0.0961934
0.0961938
0.0961942
0.0961946
0.096195
0.0961954
0.0961958
0.0961961
0.0961964
0.0961966
0.0961969
0.096197
0.0961972
0.0961972
0.0961973
0.0961972
0.0961972
0.096197
0.0961969
0.0961967
0.0961964
0.0961961
0.0961958
0.0961954
0.096195
0.0961946
0.0961942
0.0961938
0.0961934
0.096193
0.0961926
0.0961923
0.0961919
0.0961916
0.0961914
0.0870728
0.0870727
0.0870726
0.0870726
0.0870725
0.0870726
0.0870726
0.0870727
0.0870728
0.0870729
0.087073
0.0870732
0.0870734
0.0870736
0.0870738
0.087074
0.0870742
0.0870744
0.0870746
0.0870748
0.087075
0.0870752
0.0870754
0.0870756
0.0870757
0.0870758
0.0870759
0.087076
0.087076
0.0870761
0.087076
0.087076
0.0870759
0.0870758
0.0870757
0.0870756
0.0870754
0.0870752
0.0870751
0.0870748
0.0870746
0.0870744
0.0870742
0.087074
0.0870738
0.0870736
0.0870734
0.0870732
0.087073
0.0870729
0.0793144
0.0793144
0.0793143
0.0793143
0.0793143
0.0793143
0.0793143
0.0793144
0.0793144
0.0793145
0.0793145
0.0793146
0.0793147
0.0793148
0.0793149
0.079315
0.0793151
0.0793152
0.0793154
0.0793155
0.0793156
0.0793157
0.0793157
0.0793158
0.0793159
0.079316
0.079316
0.079316
0.0793161
0.0793161
0.0793161
0.079316
0.079316
0.079316
0.0793159
0.0793158
0.0793157
0.0793157
0.0793156
0.0793155
0.0793154
0.0793152
0.0793151
0.079315
0.0793149
0.0793148
0.0793147
0.0793146
0.0793145
0.0793145
0.0727732
0.0727732
0.0727732
0.0727732
0.0727732
0.0727732
0.0727732
0.0727732
0.0727732
0.0727733
0.0727733
0.0727733
0.0727734
0.0727734
0.0727735
0.0727735
0.0727736
0.0727736
0.0727737
0.0727737
0.0727738
0.0727738
0.0727739
0.0727739
0.0727739
0.0727739
0.072774
0.072774
0.072774
0.072774
0.072774
0.072774
0.072774
0.0727739
0.0727739
0.0727739
0.0727739
0.0727738
0.0727738
0.0727737
0.0727737
0.0727736
0.0727736
0.0727735
0.0727735
0.0727734
0.0727734
0.0727733
0.0727733
0.0727733
0.0673178
0.0673178
0.0673178
0.0673178
0.0673178
0.0673178
0.0673178
0.0673178
0.0673178
0.0673178
0.0673178
0.0673178
0.0673179
0.0673179
0.0673179
0.0673179
0.0673179
0.067318
0.067318
0.067318
0.067318
0.067318
0.0673181
0.0673181
0.0673181
0.0673181
0.0673181
0.0673181
0.0673181
0.0673181
0.0673181
0.0673181
0.0673181
0.0673181
0.0673181
0.0673181
0.0673181
0.067318
0.067318
0.067318
0.067318
0.067318
0.0673179
0.0673179
0.0673179
0.0673179
0.0673178
0.0673178
0.0673178
0.0673178
0.0630018
0.0630018
0.0630018
0.0630018
0.0630018
0.0630018
0.0630018
0.0630018
0.0630018
0.0630018
0.0630018
0.0630018
0.0630018
0.0630018
0.0630018
0.0630018
0.0630018
0.0630019
0.0630019
0.0630019
0.0630019
0.0630019
0.0630019
0.0630019
0.0630019
0.0630019
0.0630019
0.0630019
0.0630019
0.0630019
0.0630019
0.0630019
0.0630019
0.0630019
0.0630019
0.0630019
0.0630019
0.0630019
0.0630019
0.0630019
0.0630019
0.0630019
0.0630018
0.0630018
0.0630018
0.0630018
0.0630018
0.0630018
0.0630018
0.0630018
0.0593862
0.0593862
0.0593862
0.0593862
0.0593862
0.0593862
0.0593862
0.0593862
0.0593862
0.0593862
0.0593862
0.0593862
0.0593862
0.0593862
0.0593862
0.0593862
0.0593863
0.0593863
0.0593863
0.0593863
0.0593863
0.0593863
0.0593863
0.0593863
0.0593863
0.0593863
0.0593863
0.0593863
0.0593863
0.0593863
0.0593863
0.0593863
0.0593863
0.0593863
0.0593863
0.0593863
0.0593863
0.0593863
0.0593863
0.0593863
0.0593863
0.0593863
0.0593862
0.0593862
0.0593862
0.0593862
0.0593862
0.0593862
0.0593862
0.0593862
0.0569422
0.0569422
0.0569422
0.0569422
0.0569422
0.0569422
0.0569422
0.0569422
0.0569422
0.0569422
0.0569422
0.0569422
0.0569422
0.0569422
0.0569422
0.0569422
0.0569423
0.0569423
0.0569423
0.0569423
0.0569423
0.0569423
0.0569423
0.0569423
0.0569423
0.0569423
0.0569423
0.0569423
0.0569423
0.0569423
0.0569423
0.0569423
0.0569423
0.0569423
0.0569423
0.0569423
0.0569423
0.0569423
0.0569423
0.0569423
0.0569423
0.0569423
0.0569423
0.0569423
0.0569423
0.0569423
0.0569422
0.0569422
0.0569422
0.0569422
0.0546834
0.0546834
0.0546834
0.0546834
0.0546834
0.0546834
0.0546834
0.0546834
0.0546834
0.0546834
0.0546834
0.0546834
0.0546834
0.0546834
0.0546834
0.0546834
0.0546834
0.0546834
0.0546834
0.0546834
0.0546834
0.0546834
0.0546834
0.0546834
0.0546834
0.0546834
0.0546834
0.0546834
0.0546834
0.0546834
0.0546834
0.0546834
0.0546834
0.0546834
0.0546834
0.0546834
0.0546834
0.0546834
0.0546834
0.0546834
0.0546834
0.0546834
0.0546834
0.0546834
0.0546834
0.0546834
0.0546834
0.0546834
0.0546834
0.0546834
0.0539578
0.0539577
0.0539577
0.0539577
0.0539577
0.0539577
0.0539577
0.0539577
0.0539577
0.0539577
0.0539577
0.0539577
0.0539577
0.0539577
0.0539577
0.0539577
0.0539577
0.0539577
0.0539577
0.0539577
0.0539577
0.0539577
0.0539577
0.0539577
0.0539577
0.0539577
0.0539577
0.0539577
0.0539577
0.0539577
0.0539577
0.0539578
0.0539578
0.0539578
0.0539578
0.0539578
0.0539578
0.0539578
0.0539578
0.0539578
0.0539578
0.0539578
0.0539578
0.0539578
0.0539578
0.0539578
0.0539578
0.0539578
0.0539578
0.0539577
0.0527858
0.0527858
0.0527858
0.0527858
0.0527858
0.0527858
0.0527858
0.0527858
0.0527858
0.0527858
0.0527858
0.0527858
0.0527858
0.0527858
0.0527858
0.0527858
0.0527858
0.0527858
0.0527858
0.0527858
0.0527858
0.0527858
0.0527858
0.0527858
0.0527858
0.0527858
0.0527858
0.0527858
0.0527858
0.0527858
0.0527858
0.0527858
0.0527858
0.0527858
0.0527858
0.0527858
0.0527858
0.0527858
0.0527858
0.0527858
0.0527858
0.0527858
0.0527858
0.0527858
0.0527858
0.0527858
0.0527858
0.0527858
0.0527858
0.0527858
0.218342
0.21834
0.218338
0.218338
0.218337
0.218338
0.218338
0.21834
0.218342
0.218344
0.218347
0.21835
0.218354
0.218357
0.218362
0.218366
0.21837
0.218375
0.218379
0.218383
0.218387
0.218391
0.218395
0.218398
0.218401
0.218403
0.218405
0.218406
0.218407
0.218408
0.218407
0.218406
0.218405
0.218403
0.218401
0.218398
0.218395
0.218391
0.218387
0.218383
0.218379
0.218375
0.21837
0.218366
0.218362
0.218358
0.218354
0.21835
0.218347
0.218344
0.202685
0.202683
0.202682
0.202681
0.202681
0.202681
0.202682
0.202683
0.202685
0.202687
0.202689
0.202692
0.202695
0.202698
0.202701
0.202705
0.202708
0.202712
0.202716
0.202719
0.202723
0.202726
0.202729
0.202731
0.202734
0.202736
0.202737
0.202738
0.202739
0.202739
0.202739
0.202738
0.202737
0.202736
0.202734
0.202731
0.202729
0.202726
0.202723
0.202719
0.202716
0.202712
0.202708
0.202705
0.202701
0.202698
0.202695
0.202692
0.202689
0.202687
0.187123
0.187122
0.187121
0.187121
0.18712
0.187121
0.187121
0.187122
0.187123
0.187125
0.187127
0.187129
0.187131
0.187134
0.187136
0.187139
0.187142
0.187145
0.187148
0.187151
0.187154
0.187156
0.187158
0.187161
0.187162
0.187164
0.187165
0.187166
0.187167
0.187167
0.187167
0.187166
0.187165
0.187164
0.187163
0.187161
0.187159
0.187156
0.187154
0.187151
0.187148
0.187145
0.187142
0.187139
0.187136
0.187134
0.187131
0.187129
0.187127
0.187125
0.171724
0.171723
0.171722
0.171722
0.171722
0.171722
0.171722
0.171723
0.171724
0.171725
0.171727
0.171728
0.17173
0.171732
0.171734
0.171736
0.171739
0.171741
0.171743
0.171745
0.171747
0.171749
0.171751
0.171753
0.171754
0.171755
0.171756
0.171757
0.171758
0.171758
0.171758
0.171757
0.171756
0.171755
0.171754
0.171753
0.171751
0.171749
0.171747
0.171745
0.171743
0.171741
0.171739
0.171736
0.171734
0.171732
0.17173
0.171728
0.171727
0.171725
0.156873
0.156873
0.156872
0.156872
0.156872
0.156872
0.156872
0.156873
0.156873
0.156874
0.156875
0.156876
0.156878
0.156879
0.156881
0.156882
0.156884
0.156886
0.156887
0.156889
0.15689
0.156892
0.156893
0.156894
0.156895
0.156896
0.156897
0.156898
0.156898
0.156898
0.156898
0.156898
0.156897
0.156896
0.156895
0.156894
0.156893
0.156892
0.15689
0.156889
0.156887
0.156886
0.156884
0.156882
0.156881
0.156879
0.156878
0.156876
0.156875
0.156874
0.142717
0.142716
0.142716
0.142716
0.142715
0.142716
0.142716
0.142716
0.142717
0.142717
0.142718
0.142719
0.14272
0.142721
0.142722
0.142723
0.142724
0.142725
0.142726
0.142728
0.142729
0.14273
0.142731
0.142731
0.142732
0.142733
0.142733
0.142734
0.142734
0.142734
0.142734
0.142734
0.142733
0.142733
0.142732
0.142731
0.142731
0.14273
0.142729
0.142728
0.142726
0.142725
0.142724
0.142723
0.142722
0.142721
0.14272
0.142719
0.142718
0.142717
0.129543
0.129542
0.129542
0.129542
0.129542
0.129542
0.129542
0.129542
0.129543
0.129543
0.129544
0.129544
0.129545
0.129546
0.129546
0.129547
0.129548
0.129548
0.129549
0.12955
0.129551
0.129551
0.129552
0.129553
0.129553
0.129553
0.129554
0.129554
0.129554
0.129554
0.129554
0.129554
0.129554
0.129553
0.129553
0.129553
0.129552
0.129551
0.129551
0.12955
0.129549
0.129549
0.129548
0.129547
0.129546
0.129546
0.129545
0.129544
0.129544
0.129543
0.117397
0.117397
0.117397
0.117397
0.117397
0.117397
0.117397
0.117397
0.117397
0.117398
0.117398
0.117398
0.117399
0.117399
0.1174
0.1174
0.117401
0.117401
0.117402
0.117402
0.117402
0.117403
0.117403
0.117404
0.117404
0.117404
0.117404
0.117405
0.117405
0.117405
0.117405
0.117405
0.117404
0.117404
0.117404
0.117404
0.117403
0.117403
0.117402
0.117402
0.117402
0.117401
0.117401
0.1174
0.1174
0.117399
0.117399
0.117398
0.117398
0.117398
0.106476
0.106476
0.106476
0.106476
0.106476
0.106476
0.106476
0.106476
0.106476
0.106476
0.106476
0.106477
0.106477
0.106477
0.106477
0.106478
0.106478
0.106478
0.106478
0.106479
0.106479
0.106479
0.106479
0.10648
0.10648
0.10648
0.10648
0.10648
0.10648
0.10648
0.10648
0.10648
0.10648
0.10648
0.10648
0.10648
0.106479
0.106479
0.106479
0.106479
0.106478
0.106478
0.106478
0.106478
0.106477
0.106477
0.106477
0.106477
0.106476
0.106476
0.0967422
0.0967421
0.096742
0.096742
0.096742
0.096742
0.096742
0.0967421
0.0967422
0.0967422
0.0967423
0.0967425
0.0967426
0.0967427
0.0967429
0.096743
0.0967432
0.0967433
0.0967435
0.0967436
0.0967438
0.0967439
0.096744
0.0967441
0.0967442
0.0967443
0.0967444
0.0967444
0.0967445
0.0967445
0.0967445
0.0967444
0.0967444
0.0967443
0.0967442
0.0967441
0.096744
0.0967439
0.0967438
0.0967436
0.0967435
0.0967433
0.0967432
0.096743
0.0967429
0.0967427
0.0967426
0.0967425
0.0967423
0.0967422
0.088257
0.088257
0.088257
0.0882569
0.0882569
0.0882569
0.088257
0.088257
0.088257
0.0882571
0.0882571
0.0882572
0.0882572
0.0882573
0.0882574
0.0882574
0.0882575
0.0882576
0.0882577
0.0882577
0.0882578
0.0882579
0.088258
0.088258
0.0882581
0.0882581
0.0882581
0.0882582
0.0882582
0.0882582
0.0882582
0.0882582
0.0882581
0.0882581
0.0882581
0.088258
0.088258
0.0882579
0.0882578
0.0882578
0.0882577
0.0882576
0.0882575
0.0882574
0.0882574
0.0882573
0.0882572
0.0882572
0.0882571
0.0882571
0.0809818
0.0809818
0.0809818
0.0809818
0.0809818
0.0809818
0.0809818
0.0809818
0.0809818
0.0809818
0.0809819
0.0809819
0.0809819
0.080982
0.080982
0.080982
0.0809821
0.0809821
0.0809821
0.0809822
0.0809822
0.0809822
0.0809823
0.0809823
0.0809823
0.0809823
0.0809824
0.0809824
0.0809824
0.0809824
0.0809824
0.0809824
0.0809824
0.0809823
0.0809823
0.0809823
0.0809823
0.0809822
0.0809822
0.0809822
0.0809821
0.0809821
0.0809821
0.080982
0.080982
0.080982
0.0809819
0.0809819
0.0809819
0.0809818
0.0747939
0.0747939
0.0747939
0.0747939
0.0747939
0.0747939
0.0747939
0.0747939
0.0747939
0.0747939
0.0747939
0.0747939
0.0747939
0.074794
0.074794
0.074794
0.074794
0.074794
0.074794
0.0747941
0.0747941
0.0747941
0.0747941
0.0747941
0.0747941
0.0747941
0.0747941
0.0747941
0.0747941
0.0747941
0.0747941
0.0747941
0.0747941
0.0747941
0.0747941
0.0747941
0.0747941
0.0747941
0.0747941
0.0747941
0.074794
0.074794
0.074794
0.074794
0.074794
0.074794
0.0747939
0.0747939
0.0747939
0.0747939
0.0697938
0.0697938
0.0697938
0.0697938
0.0697938
0.0697938
0.0697938
0.0697938
0.0697938
0.0697938
0.0697938
0.0697938
0.0697938
0.0697938
0.0697938
0.0697938
0.0697938
0.0697938
0.0697938
0.0697938
0.0697938
0.0697938
0.0697939
0.0697939
0.0697939
0.0697939
0.0697939
0.0697939
0.0697939
0.0697939
0.0697939
0.0697939
0.0697939
0.0697939
0.0697939
0.0697939
0.0697939
0.0697938
0.0697938
0.0697938
0.0697938
0.0697938
0.0697938
0.0697938
0.0697938
0.0697938
0.0697938
0.0697938
0.0697938
0.0697938
0.0655633
0.0655633
0.0655633
0.0655633
0.0655633
0.0655633
0.0655633
0.0655633
0.0655633
0.0655633
0.0655633
0.0655633
0.0655633
0.0655633
0.0655633
0.0655633
0.0655633
0.0655633
0.0655633
0.0655633
0.0655633
0.0655633
0.0655633
0.0655633
0.0655633
0.0655633
0.0655633
0.0655633
0.0655633
0.0655633
0.0655633
0.0655633
0.0655633
0.0655633
0.0655633
0.0655633
0.0655633
0.0655633
0.0655633
0.0655633
0.0655633
0.0655633
0.0655633
0.0655633
0.0655633
0.0655633
0.0655633
0.0655633
0.0655633
0.0655633
0.0625834
0.0625834
0.0625834
0.0625834
0.0625834
0.0625834
0.0625834
0.0625834
0.0625834
0.0625834
0.0625834
0.0625834
0.0625834
0.0625834
0.0625834
0.0625834
0.0625834
0.0625834
0.0625834
0.0625834
0.0625834
0.0625834
0.0625834
0.0625834
0.0625834
0.0625834
0.0625834
0.0625834
0.0625834
0.0625834
0.0625834
0.0625834
0.0625834
0.0625834
0.0625834
0.0625834
0.0625834
0.0625834
0.0625834
0.0625834
0.0625834
0.0625834
0.0625834
0.0625834
0.0625834
0.0625834
0.0625834
0.0625834
0.0625834
0.0625834
0.0598986
0.0598986
0.0598986
0.0598986
0.0598986
0.0598986
0.0598986
0.0598986
0.0598986
0.0598986
0.0598986
0.0598986
0.0598986
0.0598986
0.0598986
0.0598986
0.0598986
0.0598986
0.0598986
0.0598986
0.0598986
0.0598986
0.0598986
0.0598986
0.0598986
0.0598986
0.0598986
0.0598986
0.0598986
0.0598986
0.0598986
0.0598986
0.0598986
0.0598986
0.0598986
0.0598986
0.0598986
0.0598986
0.0598986
0.0598986
0.0598986
0.0598986
0.0598986
0.0598986
0.0598986
0.0598986
0.0598986
0.0598986
0.0598986
0.0598986
0.0588568
0.0588568
0.0588568
0.0588568
0.0588568
0.0588568
0.0588568
0.0588568
0.0588568
0.0588568
0.0588568
0.0588568
0.0588568
0.0588568
0.0588568
0.0588568
0.0588568
0.0588568
0.0588568
0.0588568
0.0588568
0.0588568
0.0588568
0.0588568
0.0588568
0.0588568
0.0588568
0.0588568
0.0588568
0.0588568
0.0588568
0.0588568
0.0588568
0.0588568
0.0588568
0.0588568
0.0588568
0.0588568
0.0588568
0.0588568
0.0588568
0.0588568
0.0588568
0.0588568
0.0588568
0.0588568
0.0588568
0.0588568
0.0588568
0.0588568
0.0575075
0.0575075
0.0575075
0.0575075
0.0575075
0.0575075
0.0575075
0.0575075
0.0575075
0.0575075
0.0575075
0.0575075
0.0575075
0.0575075
0.0575075
0.0575075
0.0575075
0.0575075
0.0575075
0.0575075
0.0575075
0.0575075
0.0575075
0.0575075
0.0575075
0.0575075
0.0575075
0.0575075
0.0575075
0.0575075
0.0575075
0.0575075
0.0575075
0.0575075
0.0575075
0.0575075
0.0575075
0.0575075
0.0575075
0.0575075
0.0575075
0.0575075
0.0575075
0.0575075
0.0575075
0.0575075
0.0575075
0.0575075
0.0575075
0.0575075
0.21752
0.217519
0.217518
0.217518
0.217518
0.217518
0.217518
0.217519
0.21752
0.217521
0.217523
0.217525
0.217526
0.217529
0.217531
0.217533
0.217535
0.217538
0.21754
0.217542
0.217544
0.217546
0.217548
0.21755
0.217552
0.217553
0.217554
0.217554
0.217555
0.217555
0.217555
0.217554
0.217554
0.217553
0.217552
0.21755
0.217548
0.217546
0.217544
0.217542
0.21754
0.217538
0.217535
0.217533
0.217531
0.217529
0.217526
0.217525
0.217523
0.217521
0.204423
0.204422
0.204421
0.204421
0.204421
0.204421
0.204421
0.204422
0.204423
0.204424
0.204425
0.204426
0.204428
0.20443
0.204432
0.204434
0.204436
0.204438
0.204439
0.204441
0.204443
0.204445
0.204447
0.204448
0.204449
0.20445
0.204451
0.204452
0.204452
0.204452
0.204452
0.204452
0.204451
0.20445
0.204449
0.204448
0.204447
0.204445
0.204443
0.204441
0.204439
0.204437
0.204436
0.204434
0.204432
0.20443
0.204428
0.204426
0.204425
0.204424
0.191058
0.191058
0.191057
0.191057
0.191057
0.191057
0.191057
0.191058
0.191058
0.191059
0.19106
0.191061
0.191063
0.191064
0.191066
0.191067
0.191069
0.19107
0.191072
0.191074
0.191075
0.191076
0.191078
0.191079
0.19108
0.191081
0.191082
0.191082
0.191082
0.191082
0.191082
0.191082
0.191082
0.191081
0.19108
0.191079
0.191078
0.191076
0.191075
0.191074
0.191072
0.19107
0.191069
0.191067
0.191066
0.191064
0.191063
0.191061
0.19106
0.191059
0.177467
0.177467
0.177466
0.177466
0.177466
0.177466
0.177466
0.177467
0.177467
0.177468
0.177469
0.17747
0.177471
0.177472
0.177473
0.177474
0.177475
0.177477
0.177478
0.177479
0.17748
0.177482
0.177483
0.177484
0.177484
0.177485
0.177486
0.177486
0.177486
0.177486
0.177486
0.177486
0.177486
0.177485
0.177484
0.177484
0.177483
0.177482
0.17748
0.177479
0.177478
0.177477
0.177475
0.177474
0.177473
0.177472
0.177471
0.17747
0.177469
0.177468
0.164036
0.164035
0.164035
0.164035
0.164035
0.164035
0.164035
0.164035
0.164036
0.164036
0.164037
0.164037
0.164038
0.164039
0.16404
0.164041
0.164042
0.164043
0.164044
0.164045
0.164046
0.164046
0.164047
0.164048
0.164048
0.164049
0.164049
0.16405
0.16405
0.16405
0.16405
0.16405
0.164049
0.164049
0.164048
0.164048
0.164047