/*--------------------------------*- C++ -*----------------------------------*\
| =========                 |                                                 |
| \\      /  F ield         | OpenFOAM: The Open Source CFD Toolbox           |
|  \\    /   O peration     | Version:  4.x                                   |
|   \\  /    A nd           | Web:      www.OpenFOAM.org                      |
|    \\/     M anipulation  |                                                 |
\*---------------------------------------------------------------------------*/
FoamFile
{
    version     2.0;
    format      ascii;
    class       volVectorField;
    location    "60";
    object      cellCenters;
}
// * * * * * * * * * * * * * * * * * * * * * * * * * * * * * * * * * * * * * //

dimensions      [0 1 0 0 0 0 0];

internalField   nonuniform List<vector> 
112000
(
(0.0263643 0.0545448 0.01)
(0.0758747 0.0545448 0.01)
(0.119342 0.0545448 0.01)
(0.157503 0.0545448 0.01)
(0.191005 0.0545448 0.01)
(0.220419 0.0545448 0.01)
(0.246241 0.0545448 0.01)
(0.268912 0.0545448 0.01)
(0.288815 0.0545448 0.01)
(0.306289 0.0545448 0.01)
(0.32163 0.0545448 0.01)
(0.335098 0.0545448 0.01)
(0.346923 0.0545448 0.01)
(0.357304 0.0545448 0.01)
(0.366417 0.0545448 0.01)
(0.374418 0.0545448 0.01)
(0.381443 0.0545448 0.01)
(0.38761 0.0545448 0.01)
(0.393024 0.0545448 0.01)
(0.397778 0.0545448 0.01)
(0.0263643 0.155465 0.01)
(0.0758747 0.155465 0.01)
(0.119342 0.155465 0.01)
(0.157503 0.155465 0.01)
(0.191005 0.155465 0.01)
(0.220419 0.155465 0.01)
(0.246241 0.155465 0.01)
(0.268912 0.155465 0.01)
(0.288815 0.155465 0.01)
(0.306289 0.155465 0.01)
(0.32163 0.155465 0.01)
(0.335098 0.155465 0.01)
(0.346923 0.155465 0.01)
(0.357304 0.155465 0.01)
(0.366417 0.155465 0.01)
(0.374418 0.155465 0.01)
(0.381443 0.155465 0.01)
(0.38761 0.155465 0.01)
(0.393024 0.155465 0.01)
(0.397778 0.155465 0.01)
(0.0263643 0.241271 0.01)
(0.0758747 0.241271 0.01)
(0.119342 0.241271 0.01)
(0.157503 0.241271 0.01)
(0.191005 0.241271 0.01)
(0.220419 0.241271 0.01)
(0.246241 0.241271 0.01)
(0.268912 0.241271 0.01)
(0.288815 0.241271 0.01)
(0.306289 0.241271 0.01)
(0.32163 0.241271 0.01)
(0.335098 0.241271 0.01)
(0.346923 0.241271 0.01)
(0.357304 0.241271 0.01)
(0.366417 0.241271 0.01)
(0.374418 0.241271 0.01)
(0.381443 0.241271 0.01)
(0.38761 0.241271 0.01)
(0.393024 0.241271 0.01)
(0.397778 0.241271 0.01)
(0.0263643 0.314226 0.01)
(0.0758747 0.314226 0.01)
(0.119342 0.314226 0.01)
(0.157503 0.314226 0.01)
(0.191005 0.314226 0.01)
(0.220419 0.314226 0.01)
(0.246241 0.314226 0.01)
(0.268912 0.314226 0.01)
(0.288815 0.314226 0.01)
(0.306289 0.314226 0.01)
(0.32163 0.314226 0.01)
(0.335098 0.314226 0.01)
(0.346923 0.314226 0.01)
(0.357304 0.314226 0.01)
(0.366417 0.314226 0.01)
(0.374418 0.314226 0.01)
(0.381443 0.314226 0.01)
(0.38761 0.314226 0.01)
(0.393024 0.314226 0.01)
(0.397778 0.314226 0.01)
(0.0263643 0.376254 0.01)
(0.0758747 0.376254 0.01)
(0.119342 0.376254 0.01)
(0.157503 0.376254 0.01)
(0.191005 0.376254 0.01)
(0.220419 0.376254 0.01)
(0.246241 0.376254 0.01)
(0.268912 0.376254 0.01)
(0.288815 0.376254 0.01)
(0.306289 0.376254 0.01)
(0.32163 0.376254 0.01)
(0.335098 0.376254 0.01)
(0.346923 0.376254 0.01)
(0.357304 0.376254 0.01)
(0.366417 0.376254 0.01)
(0.374418 0.376254 0.01)
(0.381443 0.376254 0.01)
(0.38761 0.376254 0.01)
(0.393024 0.376254 0.01)
(0.397778 0.376254 0.01)
(0.0263643 0.428992 0.01)
(0.0758747 0.428992 0.01)
(0.119342 0.428992 0.01)
(0.157503 0.428992 0.01)
(0.191005 0.428992 0.01)
(0.220419 0.428992 0.01)
(0.246241 0.428992 0.01)
(0.268912 0.428992 0.01)
(0.288815 0.428992 0.01)
(0.306289 0.428992 0.01)
(0.32163 0.428992 0.01)
(0.335098 0.428992 0.01)
(0.346923 0.428992 0.01)
(0.357304 0.428992 0.01)
(0.366417 0.428992 0.01)
(0.374418 0.428992 0.01)
(0.381443 0.428992 0.01)
(0.38761 0.428992 0.01)
(0.393024 0.428992 0.01)
(0.397778 0.428992 0.01)
(0.0263643 0.473832 0.01)
(0.0758747 0.473832 0.01)
(0.119342 0.473832 0.01)
(0.157503 0.473832 0.01)
(0.191005 0.473832 0.01)
(0.220419 0.473832 0.01)
(0.246241 0.473832 0.01)
(0.268912 0.473832 0.01)
(0.288815 0.473832 0.01)
(0.306289 0.473832 0.01)
(0.32163 0.473832 0.01)
(0.335098 0.473832 0.01)
(0.346923 0.473832 0.01)
(0.357304 0.473832 0.01)
(0.366417 0.473832 0.01)
(0.374418 0.473832 0.01)
(0.381443 0.473832 0.01)
(0.38761 0.473832 0.01)
(0.393024 0.473832 0.01)
(0.397778 0.473832 0.01)
(0.0263643 0.511956 0.01)
(0.0758747 0.511956 0.01)
(0.119342 0.511956 0.01)
(0.157503 0.511956 0.01)
(0.191005 0.511956 0.01)
(0.220419 0.511956 0.01)
(0.246241 0.511956 0.01)
(0.268912 0.511956 0.01)
(0.288815 0.511956 0.01)
(0.306289 0.511956 0.01)
(0.32163 0.511956 0.01)
(0.335098 0.511956 0.01)
(0.346923 0.511956 0.01)
(0.357304 0.511956 0.01)
(0.366417 0.511956 0.01)
(0.374418 0.511956 0.01)
(0.381443 0.511956 0.01)
(0.38761 0.511956 0.01)
(0.393024 0.511956 0.01)
(0.397778 0.511956 0.01)
(0.0263643 0.544371 0.01)
(0.0758747 0.544371 0.01)
(0.119342 0.544371 0.01)
(0.157503 0.544371 0.01)
(0.191005 0.544371 0.01)
(0.220419 0.544371 0.01)
(0.246241 0.544371 0.01)
(0.268912 0.544371 0.01)
(0.288815 0.544371 0.01)
(0.306289 0.544371 0.01)
(0.32163 0.544371 0.01)
(0.335098 0.544371 0.01)
(0.346923 0.544371 0.01)
(0.357304 0.544371 0.01)
(0.366417 0.544371 0.01)
(0.374418 0.544371 0.01)
(0.381443 0.544371 0.01)
(0.38761 0.544371 0.01)
(0.393024 0.544371 0.01)
(0.397778 0.544371 0.01)
(0.0263643 0.571931 0.01)
(0.0758747 0.571931 0.01)
(0.119342 0.571931 0.01)
(0.157503 0.571931 0.01)
(0.191005 0.571931 0.01)
(0.220419 0.571931 0.01)
(0.246241 0.571931 0.01)
(0.268912 0.571931 0.01)
(0.288815 0.571931 0.01)
(0.306289 0.571931 0.01)
(0.32163 0.571931 0.01)
(0.335098 0.571931 0.01)
(0.346923 0.571931 0.01)
(0.357304 0.571931 0.01)
(0.366417 0.571931 0.01)
(0.374418 0.571931 0.01)
(0.381443 0.571931 0.01)
(0.38761 0.571931 0.01)
(0.393024 0.571931 0.01)
(0.397778 0.571931 0.01)
(0.0263643 0.595363 0.01)
(0.0758747 0.595363 0.01)
(0.119342 0.595363 0.01)
(0.157503 0.595363 0.01)
(0.191005 0.595363 0.01)
(0.220419 0.595363 0.01)
(0.246241 0.595363 0.01)
(0.268912 0.595363 0.01)
(0.288815 0.595363 0.01)
(0.306289 0.595363 0.01)
(0.32163 0.595363 0.01)
(0.335098 0.595363 0.01)
(0.346923 0.595363 0.01)
(0.357304 0.595363 0.01)
(0.366417 0.595363 0.01)
(0.374418 0.595363 0.01)
(0.381443 0.595363 0.01)
(0.38761 0.595363 0.01)
(0.393024 0.595363 0.01)
(0.397778 0.595363 0.01)
(0.0263643 0.615285 0.01)
(0.0758747 0.615285 0.01)
(0.119342 0.615285 0.01)
(0.157503 0.615285 0.01)
(0.191005 0.615285 0.01)
(0.220419 0.615285 0.01)
(0.246241 0.615285 0.01)
(0.268912 0.615285 0.01)
(0.288815 0.615285 0.01)
(0.306289 0.615285 0.01)
(0.32163 0.615285 0.01)
(0.335098 0.615285 0.01)
(0.346923 0.615285 0.01)
(0.357304 0.615285 0.01)
(0.366417 0.615285 0.01)
(0.374418 0.615285 0.01)
(0.381443 0.615285 0.01)
(0.38761 0.615285 0.01)
(0.393024 0.615285 0.01)
(0.397778 0.615285 0.01)
(0.0263643 0.632224 0.01)
(0.0758747 0.632224 0.01)
(0.119342 0.632224 0.01)
(0.157503 0.632224 0.01)
(0.191005 0.632224 0.01)
(0.220419 0.632224 0.01)
(0.246241 0.632224 0.01)
(0.268912 0.632224 0.01)
(0.288815 0.632224 0.01)
(0.306289 0.632224 0.01)
(0.32163 0.632224 0.01)
(0.335098 0.632224 0.01)
(0.346923 0.632224 0.01)
(0.357304 0.632224 0.01)
(0.366417 0.632224 0.01)
(0.374418 0.632224 0.01)
(0.381443 0.632224 0.01)
(0.38761 0.632224 0.01)
(0.393024 0.632224 0.01)
(0.397778 0.632224 0.01)
(0.0263643 0.646626 0.01)
(0.0758747 0.646626 0.01)
(0.119342 0.646626 0.01)
(0.157503 0.646626 0.01)
(0.191005 0.646626 0.01)
(0.220419 0.646626 0.01)
(0.246241 0.646626 0.01)
(0.268912 0.646626 0.01)
(0.288815 0.646626 0.01)
(0.306289 0.646626 0.01)
(0.32163 0.646626 0.01)
(0.335098 0.646626 0.01)
(0.346923 0.646626 0.01)
(0.357304 0.646626 0.01)
(0.366417 0.646626 0.01)
(0.374418 0.646626 0.01)
(0.381443 0.646626 0.01)
(0.38761 0.646626 0.01)
(0.393024 0.646626 0.01)
(0.397778 0.646626 0.01)
(0.0263643 0.658871 0.01)
(0.0758747 0.658871 0.01)
(0.119342 0.658871 0.01)
(0.157503 0.658871 0.01)
(0.191005 0.658871 0.01)
(0.220419 0.658871 0.01)
(0.246241 0.658871 0.01)
(0.268912 0.658871 0.01)
(0.288815 0.658871 0.01)
(0.306289 0.658871 0.01)
(0.32163 0.658871 0.01)
(0.335098 0.658871 0.01)
(0.346923 0.658871 0.01)
(0.357304 0.658871 0.01)
(0.366417 0.658871 0.01)
(0.374418 0.658871 0.01)
(0.381443 0.658871 0.01)
(0.38761 0.658871 0.01)
(0.393024 0.658871 0.01)
(0.397778 0.658871 0.01)
(0.0263643 0.669282 0.01)
(0.0758747 0.669282 0.01)
(0.119342 0.669282 0.01)
(0.157503 0.669282 0.01)
(0.191005 0.669282 0.01)
(0.220419 0.669282 0.01)
(0.246241 0.669282 0.01)
(0.268912 0.669282 0.01)
(0.288815 0.669282 0.01)
(0.306289 0.669282 0.01)
(0.32163 0.669282 0.01)
(0.335098 0.669282 0.01)
(0.346923 0.669282 0.01)
(0.357304 0.669282 0.01)
(0.366417 0.669282 0.01)
(0.374418 0.669282 0.01)
(0.381443 0.669282 0.01)
(0.38761 0.669282 0.01)
(0.393024 0.669282 0.01)
(0.397778 0.669282 0.01)
(0.0263643 0.678134 0.01)
(0.0758747 0.678134 0.01)
(0.119342 0.678134 0.01)
(0.157503 0.678134 0.01)
(0.191005 0.678134 0.01)
(0.220419 0.678134 0.01)
(0.246241 0.678134 0.01)
(0.268912 0.678134 0.01)
(0.288815 0.678134 0.01)
(0.306289 0.678134 0.01)
(0.32163 0.678134 0.01)
(0.335098 0.678134 0.01)
(0.346923 0.678134 0.01)
(0.357304 0.678134 0.01)
(0.366417 0.678134 0.01)
(0.374418 0.678134 0.01)
(0.381443 0.678134 0.01)
(0.38761 0.678134 0.01)
(0.393024 0.678134 0.01)
(0.397778 0.678134 0.01)
(0.0263643 0.68566 0.01)
(0.0758747 0.68566 0.01)
(0.119342 0.68566 0.01)
(0.157503 0.68566 0.01)
(0.191005 0.68566 0.01)
(0.220419 0.68566 0.01)
(0.246241 0.68566 0.01)
(0.268912 0.68566 0.01)
(0.288815 0.68566 0.01)
(0.306289 0.68566 0.01)
(0.32163 0.68566 0.01)
(0.335098 0.68566 0.01)
(0.346923 0.68566 0.01)
(0.357304 0.68566 0.01)
(0.366417 0.68566 0.01)
(0.374418 0.68566 0.01)
(0.381443 0.68566 0.01)
(0.38761 0.68566 0.01)
(0.393024 0.68566 0.01)
(0.397778 0.68566 0.01)
(0.0263643 0.692059 0.01)
(0.0758747 0.692059 0.01)
(0.119342 0.692059 0.01)
(0.157503 0.692059 0.01)
(0.191005 0.692059 0.01)
(0.220419 0.692059 0.01)
(0.246241 0.692059 0.01)
(0.268912 0.692059 0.01)
(0.288815 0.692059 0.01)
(0.306289 0.692059 0.01)
(0.32163 0.692059 0.01)
(0.335098 0.692059 0.01)
(0.346923 0.692059 0.01)
(0.357304 0.692059 0.01)
(0.366417 0.692059 0.01)
(0.374418 0.692059 0.01)
(0.381443 0.692059 0.01)
(0.38761 0.692059 0.01)
(0.393024 0.692059 0.01)
(0.397778 0.692059 0.01)
(0.0263643 0.6975 0.01)
(0.0758747 0.6975 0.01)
(0.119342 0.6975 0.01)
(0.157503 0.6975 0.01)
(0.191005 0.6975 0.01)
(0.220419 0.6975 0.01)
(0.246241 0.6975 0.01)
(0.268912 0.6975 0.01)
(0.288815 0.6975 0.01)
(0.306289 0.6975 0.01)
(0.32163 0.6975 0.01)
(0.335098 0.6975 0.01)
(0.346923 0.6975 0.01)
(0.357304 0.6975 0.01)
(0.366417 0.6975 0.01)
(0.374418 0.6975 0.01)
(0.381443 0.6975 0.01)
(0.38761 0.6975 0.01)
(0.393024 0.6975 0.01)
(0.397778 0.6975 0.01)
(0.0263643 0.0545448 0.03)
(0.0758747 0.0545448 0.03)
(0.119342 0.0545448 0.03)
(0.157503 0.0545448 0.03)
(0.191005 0.0545448 0.03)
(0.220419 0.0545448 0.03)
(0.246241 0.0545448 0.03)
(0.268912 0.0545448 0.03)
(0.288815 0.0545448 0.03)
(0.306289 0.0545448 0.03)
(0.32163 0.0545448 0.03)
(0.335098 0.0545448 0.03)
(0.346923 0.0545448 0.03)
(0.357304 0.0545448 0.03)
(0.366417 0.0545448 0.03)
(0.374418 0.0545448 0.03)
(0.381443 0.0545448 0.03)
(0.38761 0.0545448 0.03)
(0.393024 0.0545448 0.03)
(0.397778 0.0545448 0.03)
(0.0263643 0.155465 0.03)
(0.0758747 0.155465 0.03)
(0.119342 0.155465 0.03)
(0.157503 0.155465 0.03)
(0.191005 0.155465 0.03)
(0.220419 0.155465 0.03)
(0.246241 0.155465 0.03)
(0.268912 0.155465 0.03)
(0.288815 0.155465 0.03)
(0.306289 0.155465 0.03)
(0.32163 0.155465 0.03)
(0.335098 0.155465 0.03)
(0.346923 0.155465 0.03)
(0.357304 0.155465 0.03)
(0.366417 0.155465 0.03)
(0.374418 0.155465 0.03)
(0.381443 0.155465 0.03)
(0.38761 0.155465 0.03)
(0.393024 0.155465 0.03)
(0.397778 0.155465 0.03)
(0.0263643 0.241271 0.03)
(0.0758747 0.241271 0.03)
(0.119342 0.241271 0.03)
(0.157503 0.241271 0.03)
(0.191005 0.241271 0.03)
(0.220419 0.241271 0.03)
(0.246241 0.241271 0.03)
(0.268912 0.241271 0.03)
(0.288815 0.241271 0.03)
(0.306289 0.241271 0.03)
(0.32163 0.241271 0.03)
(0.335098 0.241271 0.03)
(0.346923 0.241271 0.03)
(0.357304 0.241271 0.03)
(0.366417 0.241271 0.03)
(0.374418 0.241271 0.03)
(0.381443 0.241271 0.03)
(0.38761 0.241271 0.03)
(0.393024 0.241271 0.03)
(0.397778 0.241271 0.03)
(0.0263643 0.314226 0.03)
(0.0758747 0.314226 0.03)
(0.119342 0.314226 0.03)
(0.157503 0.314226 0.03)
(0.191005 0.314226 0.03)
(0.220419 0.314226 0.03)
(0.246241 0.314226 0.03)
(0.268912 0.314226 0.03)
(0.288815 0.314226 0.03)
(0.306289 0.314226 0.03)
(0.32163 0.314226 0.03)
(0.335098 0.314226 0.03)
(0.346923 0.314226 0.03)
(0.357304 0.314226 0.03)
(0.366417 0.314226 0.03)
(0.374418 0.314226 0.03)
(0.381443 0.314226 0.03)
(0.38761 0.314226 0.03)
(0.393024 0.314226 0.03)
(0.397778 0.314226 0.03)
(0.0263643 0.376254 0.03)
(0.0758747 0.376254 0.03)
(0.119342 0.376254 0.03)
(0.157503 0.376254 0.03)
(0.191005 0.376254 0.03)
(0.220419 0.376254 0.03)
(0.246241 0.376254 0.03)
(0.268912 0.376254 0.03)
(0.288815 0.376254 0.03)
(0.306289 0.376254 0.03)
(0.32163 0.376254 0.03)
(0.335098 0.376254 0.03)
(0.346923 0.376254 0.03)
(0.357304 0.376254 0.03)
(0.366417 0.376254 0.03)
(0.374418 0.376254 0.03)
(0.381443 0.376254 0.03)
(0.38761 0.376254 0.03)
(0.393024 0.376254 0.03)
(0.397778 0.376254 0.03)
(0.0263643 0.428992 0.03)
(0.0758747 0.428992 0.03)
(0.119342 0.428992 0.03)
(0.157503 0.428992 0.03)
(0.191005 0.428992 0.03)
(0.220419 0.428992 0.03)
(0.246241 0.428992 0.03)
(0.268912 0.428992 0.03)
(0.288815 0.428992 0.03)
(0.306289 0.428992 0.03)
(0.32163 0.428992 0.03)
(0.335098 0.428992 0.03)
(0.346923 0.428992 0.03)
(0.357304 0.428992 0.03)
(0.366417 0.428992 0.03)
(0.374418 0.428992 0.03)
(0.381443 0.428992 0.03)
(0.38761 0.428992 0.03)
(0.393024 0.428992 0.03)
(0.397778 0.428992 0.03)
(0.0263643 0.473832 0.03)
(0.0758747 0.473832 0.03)
(0.119342 0.473832 0.03)
(0.157503 0.473832 0.03)
(0.191005 0.473832 0.03)
(0.220419 0.473832 0.03)
(0.246241 0.473832 0.03)
(0.268912 0.473832 0.03)
(0.288815 0.473832 0.03)
(0.306289 0.473832 0.03)
(0.32163 0.473832 0.03)
(0.335098 0.473832 0.03)
(0.346923 0.473832 0.03)
(0.357304 0.473832 0.03)
(0.366417 0.473832 0.03)
(0.374418 0.473832 0.03)
(0.381443 0.473832 0.03)
(0.38761 0.473832 0.03)
(0.393024 0.473832 0.03)
(0.397778 0.473832 0.03)
(0.0263643 0.511956 0.03)
(0.0758747 0.511956 0.03)
(0.119342 0.511956 0.03)
(0.157503 0.511956 0.03)
(0.191005 0.511956 0.03)
(0.220419 0.511956 0.03)
(0.246241 0.511956 0.03)
(0.268912 0.511956 0.03)
(0.288815 0.511956 0.03)
(0.306289 0.511956 0.03)
(0.32163 0.511956 0.03)
(0.335098 0.511956 0.03)
(0.346923 0.511956 0.03)
(0.357304 0.511956 0.03)
(0.366417 0.511956 0.03)
(0.374418 0.511956 0.03)
(0.381443 0.511956 0.03)
(0.38761 0.511956 0.03)
(0.393024 0.511956 0.03)
(0.397778 0.511956 0.03)
(0.0263643 0.544371 0.03)
(0.0758747 0.544371 0.03)
(0.119342 0.544371 0.03)
(0.157503 0.544371 0.03)
(0.191005 0.544371 0.03)
(0.220419 0.544371 0.03)
(0.246241 0.544371 0.03)
(0.268912 0.544371 0.03)
(0.288815 0.544371 0.03)
(0.306289 0.544371 0.03)
(0.32163 0.544371 0.03)
(0.335098 0.544371 0.03)
(0.346923 0.544371 0.03)
(0.357304 0.544371 0.03)
(0.366417 0.544371 0.03)
(0.374418 0.544371 0.03)
(0.381443 0.544371 0.03)
(0.38761 0.544371 0.03)
(0.393024 0.544371 0.03)
(0.397778 0.544371 0.03)
(0.0263643 0.571931 0.03)
(0.0758747 0.571931 0.03)
(0.119342 0.571931 0.03)
(0.157503 0.571931 0.03)
(0.191005 0.571931 0.03)
(0.220419 0.571931 0.03)
(0.246241 0.571931 0.03)
(0.268912 0.571931 0.03)
(0.288815 0.571931 0.03)
(0.306289 0.571931 0.03)
(0.32163 0.571931 0.03)
(0.335098 0.571931 0.03)
(0.346923 0.571931 0.03)
(0.357304 0.571931 0.03)
(0.366417 0.571931 0.03)
(0.374418 0.571931 0.03)
(0.381443 0.571931 0.03)
(0.38761 0.571931 0.03)
(0.393024 0.571931 0.03)
(0.397778 0.571931 0.03)
(0.0263643 0.595363 0.03)
(0.0758747 0.595363 0.03)
(0.119342 0.595363 0.03)
(0.157503 0.595363 0.03)
(0.191005 0.595363 0.03)
(0.220419 0.595363 0.03)
(0.246241 0.595363 0.03)
(0.268912 0.595363 0.03)
(0.288815 0.595363 0.03)
(0.306289 0.595363 0.03)
(0.32163 0.595363 0.03)
(0.335098 0.595363 0.03)
(0.346923 0.595363 0.03)
(0.357304 0.595363 0.03)
(0.366417 0.595363 0.03)
(0.374418 0.595363 0.03)
(0.381443 0.595363 0.03)
(0.38761 0.595363 0.03)
(0.393024 0.595363 0.03)
(0.397778 0.595363 0.03)
(0.0263643 0.615285 0.03)
(0.0758747 0.615285 0.03)
(0.119342 0.615285 0.03)
(0.157503 0.615285 0.03)
(0.191005 0.615285 0.03)
(0.220419 0.615285 0.03)
(0.246241 0.615285 0.03)
(0.268912 0.615285 0.03)
(0.288815 0.615285 0.03)
(0.306289 0.615285 0.03)
(0.32163 0.615285 0.03)
(0.335098 0.615285 0.03)
(0.346923 0.615285 0.03)
(0.357304 0.615285 0.03)
(0.366417 0.615285 0.03)
(0.374418 0.615285 0.03)
(0.381443 0.615285 0.03)
(0.38761 0.615285 0.03)
(0.393024 0.615285 0.03)
(0.397778 0.615285 0.03)
(0.0263643 0.632224 0.03)
(0.0758747 0.632224 0.03)
(0.119342 0.632224 0.03)
(0.157503 0.632224 0.03)
(0.191005 0.632224 0.03)
(0.220419 0.632224 0.03)
(0.246241 0.632224 0.03)
(0.268912 0.632224 0.03)
(0.288815 0.632224 0.03)
(0.306289 0.632224 0.03)
(0.32163 0.632224 0.03)
(0.335098 0.632224 0.03)
(0.346923 0.632224 0.03)
(0.357304 0.632224 0.03)
(0.366417 0.632224 0.03)
(0.374418 0.632224 0.03)
(0.381443 0.632224 0.03)
(0.38761 0.632224 0.03)
(0.393024 0.632224 0.03)
(0.397778 0.632224 0.03)
(0.0263643 0.646626 0.03)
(0.0758747 0.646626 0.03)
(0.119342 0.646626 0.03)
(0.157503 0.646626 0.03)
(0.191005 0.646626 0.03)
(0.220419 0.646626 0.03)
(0.246241 0.646626 0.03)
(0.268912 0.646626 0.03)
(0.288815 0.646626 0.03)
(0.306289 0.646626 0.03)
(0.32163 0.646626 0.03)
(0.335098 0.646626 0.03)
(0.346923 0.646626 0.03)
(0.357304 0.646626 0.03)
(0.366417 0.646626 0.03)
(0.374418 0.646626 0.03)
(0.381443 0.646626 0.03)
(0.38761 0.646626 0.03)
(0.393024 0.646626 0.03)
(0.397778 0.646626 0.03)
(0.0263643 0.658871 0.03)
(0.0758747 0.658871 0.03)
(0.119342 0.658871 0.03)
(0.157503 0.658871 0.03)
(0.191005 0.658871 0.03)
(0.220419 0.658871 0.03)
(0.246241 0.658871 0.03)
(0.268912 0.658871 0.03)
(0.288815 0.658871 0.03)
(0.306289 0.658871 0.03)
(0.32163 0.658871 0.03)
(0.335098 0.658871 0.03)
(0.346923 0.658871 0.03)
(0.357304 0.658871 0.03)
(0.366417 0.658871 0.03)
(0.374418 0.658871 0.03)
(0.381443 0.658871 0.03)
(0.38761 0.658871 0.03)
(0.393024 0.658871 0.03)
(0.397778 0.658871 0.03)
(0.0263643 0.669282 0.03)
(0.0758747 0.669282 0.03)
(0.119342 0.669282 0.03)
(0.157503 0.669282 0.03)
(0.191005 0.669282 0.03)
(0.220419 0.669282 0.03)
(0.246241 0.669282 0.03)
(0.268912 0.669282 0.03)
(0.288815 0.669282 0.03)
(0.306289 0.669282 0.03)
(0.32163 0.669282 0.03)
(0.335098 0.669282 0.03)
(0.346923 0.669282 0.03)
(0.357304 0.669282 0.03)
(0.366417 0.669282 0.03)
(0.374418 0.669282 0.03)
(0.381443 0.669282 0.03)
(0.38761 0.669282 0.03)
(0.393024 0.669282 0.03)
(0.397778 0.669282 0.03)
(0.0263643 0.678134 0.03)
(0.0758747 0.678134 0.03)
(0.119342 0.678134 0.03)
(0.157503 0.678134 0.03)
(0.191005 0.678134 0.03)
(0.220419 0.678134 0.03)
(0.246241 0.678134 0.03)
(0.268912 0.678134 0.03)
(0.288815 0.678134 0.03)
(0.306289 0.678134 0.03)
(0.32163 0.678134 0.03)
(0.335098 0.678134 0.03)
(0.346923 0.678134 0.03)
(0.357304 0.678134 0.03)
(0.366417 0.678134 0.03)
(0.374418 0.678134 0.03)
(0.381443 0.678134 0.03)
(0.38761 0.678134 0.03)
(0.393024 0.678134 0.03)
(0.397778 0.678134 0.03)
(0.0263643 0.68566 0.03)
(0.0758747 0.68566 0.03)
(0.119342 0.68566 0.03)
(0.157503 0.68566 0.03)
(0.191005 0.68566 0.03)
(0.220419 0.68566 0.03)
(0.246241 0.68566 0.03)
(0.268912 0.68566 0.03)
(0.288815 0.68566 0.03)
(0.306289 0.68566 0.03)
(0.32163 0.68566 0.03)
(0.335098 0.68566 0.03)
(0.346923 0.68566 0.03)
(0.357304 0.68566 0.03)
(0.366417 0.68566 0.03)
(0.374418 0.68566 0.03)
(0.381443 0.68566 0.03)
(0.38761 0.68566 0.03)
(0.393024 0.68566 0.03)
(0.397778 0.68566 0.03)
(0.0263643 0.692059 0.03)
(0.0758747 0.692059 0.03)
(0.119342 0.692059 0.03)
(0.157503 0.692059 0.03)
(0.191005 0.692059 0.03)
(0.220419 0.692059 0.03)
(0.246241 0.692059 0.03)
(0.268912 0.692059 0.03)
(0.288815 0.692059 0.03)
(0.306289 0.692059 0.03)
(0.32163 0.692059 0.03)
(0.335098 0.692059 0.03)
(0.346923 0.692059 0.03)
(0.357304 0.692059 0.03)
(0.366417 0.692059 0.03)
(0.374418 0.692059 0.03)
(0.381443 0.692059 0.03)
(0.38761 0.692059 0.03)
(0.393024 0.692059 0.03)
(0.397778 0.692059 0.03)
(0.0263643 0.6975 0.03)
(0.0758747 0.6975 0.03)
(0.119342 0.6975 0.03)
(0.157503 0.6975 0.03)
(0.191005 0.6975 0.03)
(0.220419 0.6975 0.03)
(0.246241 0.6975 0.03)
(0.268912 0.6975 0.03)
(0.288815 0.6975 0.03)
(0.306289 0.6975 0.03)
(0.32163 0.6975 0.03)
(0.335098 0.6975 0.03)
(0.346923 0.6975 0.03)
(0.357304 0.6975 0.03)
(0.366417 0.6975 0.03)
(0.374418 0.6975 0.03)
(0.381443 0.6975 0.03)
(0.38761 0.6975 0.03)
(0.393024 0.6975 0.03)
(0.397778 0.6975 0.03)
(0.0263643 0.0545448 0.05)
(0.0758747 0.0545448 0.05)
(0.119342 0.0545448 0.05)
(0.157503 0.0545448 0.05)
(0.191005 0.0545448 0.05)
(0.220419 0.0545448 0.05)
(0.246241 0.0545448 0.05)
(0.268912 0.0545448 0.05)
(0.288815 0.0545448 0.05)
(0.306289 0.0545448 0.05)
(0.32163 0.0545448 0.05)
(0.335098 0.0545448 0.05)
(0.346923 0.0545448 0.05)
(0.357304 0.0545448 0.05)
(0.366417 0.0545448 0.05)
(0.374418 0.0545448 0.05)
(0.381443 0.0545448 0.05)
(0.38761 0.0545448 0.05)
(0.393024 0.0545448 0.05)
(0.397778 0.0545448 0.05)
(0.0263643 0.155465 0.05)
(0.0758747 0.155465 0.05)
(0.119342 0.155465 0.05)
(0.157503 0.155465 0.05)
(0.191005 0.155465 0.05)
(0.220419 0.155465 0.05)
(0.246241 0.155465 0.05)
(0.268912 0.155465 0.05)
(0.288815 0.155465 0.05)
(0.306289 0.155465 0.05)
(0.32163 0.155465 0.05)
(0.335098 0.155465 0.05)
(0.346923 0.155465 0.05)
(0.357304 0.155465 0.05)
(0.366417 0.155465 0.05)
(0.374418 0.155465 0.05)
(0.381443 0.155465 0.05)
(0.38761 0.155465 0.05)
(0.393024 0.155465 0.05)
(0.397778 0.155465 0.05)
(0.0263643 0.241271 0.05)
(0.0758747 0.241271 0.05)
(0.119342 0.241271 0.05)
(0.157503 0.241271 0.05)
(0.191005 0.241271 0.05)
(0.220419 0.241271 0.05)
(0.246241 0.241271 0.05)
(0.268912 0.241271 0.05)
(0.288815 0.241271 0.05)
(0.306289 0.241271 0.05)
(0.32163 0.241271 0.05)
(0.335098 0.241271 0.05)
(0.346923 0.241271 0.05)
(0.357304 0.241271 0.05)
(0.366417 0.241271 0.05)
(0.374418 0.241271 0.05)
(0.381443 0.241271 0.05)
(0.38761 0.241271 0.05)
(0.393024 0.241271 0.05)
(0.397778 0.241271 0.05)
(0.0263643 0.314226 0.05)
(0.0758747 0.314226 0.05)
(0.119342 0.314226 0.05)
(0.157503 0.314226 0.05)
(0.191005 0.314226 0.05)
(0.220419 0.314226 0.05)
(0.246241 0.314226 0.05)
(0.268912 0.314226 0.05)
(0.288815 0.314226 0.05)
(0.306289 0.314226 0.05)
(0.32163 0.314226 0.05)
(0.335098 0.314226 0.05)
(0.346923 0.314226 0.05)
(0.357304 0.314226 0.05)
(0.366417 0.314226 0.05)
(0.374418 0.314226 0.05)
(0.381443 0.314226 0.05)
(0.38761 0.314226 0.05)
(0.393024 0.314226 0.05)
(0.397778 0.314226 0.05)
(0.0263643 0.376254 0.05)
(0.0758747 0.376254 0.05)
(0.119342 0.376254 0.05)
(0.157503 0.376254 0.05)
(0.191005 0.376254 0.05)
(0.220419 0.376254 0.05)
(0.246241 0.376254 0.05)
(0.268912 0.376254 0.05)
(0.288815 0.376254 0.05)
(0.306289 0.376254 0.05)
(0.32163 0.376254 0.05)
(0.335098 0.376254 0.05)
(0.346923 0.376254 0.05)
(0.357304 0.376254 0.05)
(0.366417 0.376254 0.05)
(0.374418 0.376254 0.05)
(0.381443 0.376254 0.05)
(0.38761 0.376254 0.05)
(0.393024 0.376254 0.05)
(0.397778 0.376254 0.05)
(0.0263643 0.428992 0.05)
(0.0758747 0.428992 0.05)
(0.119342 0.428992 0.05)
(0.157503 0.428992 0.05)
(0.191005 0.428992 0.05)
(0.220419 0.428992 0.05)
(0.246241 0.428992 0.05)
(0.268912 0.428992 0.05)
(0.288815 0.428992 0.05)
(0.306289 0.428992 0.05)
(0.32163 0.428992 0.05)
(0.335098 0.428992 0.05)
(0.346923 0.428992 0.05)
(0.357304 0.428992 0.05)
(0.366417 0.428992 0.05)
(0.374418 0.428992 0.05)
(0.381443 0.428992 0.05)
(0.38761 0.428992 0.05)
(0.393024 0.428992 0.05)
(0.397778 0.428992 0.05)
(0.0263643 0.473832 0.05)
(0.0758747 0.473832 0.05)
(0.119342 0.473832 0.05)
(0.157503 0.473832 0.05)
(0.191005 0.473832 0.05)
(0.220419 0.473832 0.05)
(0.246241 0.473832 0.05)
(0.268912 0.473832 0.05)
(0.288815 0.473832 0.05)
(0.306289 0.473832 0.05)
(0.32163 0.473832 0.05)
(0.335098 0.473832 0.05)
(0.346923 0.473832 0.05)
(0.357304 0.473832 0.05)
(0.366417 0.473832 0.05)
(0.374418 0.473832 0.05)
(0.381443 0.473832 0.05)
(0.38761 0.473832 0.05)
(0.393024 0.473832 0.05)
(0.397778 0.473832 0.05)
(0.0263643 0.511956 0.05)
(0.0758747 0.511956 0.05)
(0.119342 0.511956 0.05)
(0.157503 0.511956 0.05)
(0.191005 0.511956 0.05)
(0.220419 0.511956 0.05)
(0.246241 0.511956 0.05)
(0.268912 0.511956 0.05)
(0.288815 0.511956 0.05)
(0.306289 0.511956 0.05)
(0.32163 0.511956 0.05)
(0.335098 0.511956 0.05)
(0.346923 0.511956 0.05)
(0.357304 0.511956 0.05)
(0.366417 0.511956 0.05)
(0.374418 0.511956 0.05)
(0.381443 0.511956 0.05)
(0.38761 0.511956 0.05)
(0.393024 0.511956 0.05)
(0.397778 0.511956 0.05)
(0.0263643 0.544371 0.05)
(0.0758747 0.544371 0.05)
(0.119342 0.544371 0.05)
(0.157503 0.544371 0.05)
(0.191005 0.544371 0.05)
(0.220419 0.544371 0.05)
(0.246241 0.544371 0.05)
(0.268912 0.544371 0.05)
(0.288815 0.544371 0.05)
(0.306289 0.544371 0.05)
(0.32163 0.544371 0.05)
(0.335098 0.544371 0.05)
(0.346923 0.544371 0.05)
(0.357304 0.544371 0.05)
(0.366417 0.544371 0.05)
(0.374418 0.544371 0.05)
(0.381443 0.544371 0.05)
(0.38761 0.544371 0.05)
(0.393024 0.544371 0.05)
(0.397778 0.544371 0.05)
(0.0263643 0.571931 0.05)
(0.0758747 0.571931 0.05)
(0.119342 0.571931 0.05)
(0.157503 0.571931 0.05)
(0.191005 0.571931 0.05)
(0.220419 0.571931 0.05)
(0.246241 0.571931 0.05)
(0.268912 0.571931 0.05)
(0.288815 0.571931 0.05)
(0.306289 0.571931 0.05)
(0.32163 0.571931 0.05)
(0.335098 0.571931 0.05)
(0.346923 0.571931 0.05)
(0.357304 0.571931 0.05)
(0.366417 0.571931 0.05)
(0.374418 0.571931 0.05)
(0.381443 0.571931 0.05)
(0.38761 0.571931 0.05)
(0.393024 0.571931 0.05)
(0.397778 0.571931 0.05)
(0.0263643 0.595363 0.05)
(0.0758747 0.595363 0.05)
(0.119342 0.595363 0.05)
(0.157503 0.595363 0.05)
(0.191005 0.595363 0.05)
(0.220419 0.595363 0.05)
(0.246241 0.595363 0.05)
(0.268912 0.595363 0.05)
(0.288815 0.595363 0.05)
(0.306289 0.595363 0.05)
(0.32163 0.595363 0.05)
(0.335098 0.595363 0.05)
(0.346923 0.595363 0.05)
(0.357304 0.595363 0.05)
(0.366417 0.595363 0.05)
(0.374418 0.595363 0.05)
(0.381443 0.595363 0.05)
(0.38761 0.595363 0.05)
(0.393024 0.595363 0.05)
(0.397778 0.595363 0.05)
(0.0263643 0.615285 0.05)
(0.0758747 0.615285 0.05)
(0.119342 0.615285 0.05)
(0.157503 0.615285 0.05)
(0.191005 0.615285 0.05)
(0.220419 0.615285 0.05)
(0.246241 0.615285 0.05)
(0.268912 0.615285 0.05)
(0.288815 0.615285 0.05)
(0.306289 0.615285 0.05)
(0.32163 0.615285 0.05)
(0.335098 0.615285 0.05)
(0.346923 0.615285 0.05)
(0.357304 0.615285 0.05)
(0.366417 0.615285 0.05)
(0.374418 0.615285 0.05)
(0.381443 0.615285 0.05)
(0.38761 0.615285 0.05)
(0.393024 0.615285 0.05)
(0.397778 0.615285 0.05)
(0.0263643 0.632224 0.05)
(0.0758747 0.632224 0.05)
(0.119342 0.632224 0.05)
(0.157503 0.632224 0.05)
(0.191005 0.632224 0.05)
(0.220419 0.632224 0.05)
(0.246241 0.632224 0.05)
(0.268912 0.632224 0.05)
(0.288815 0.632224 0.05)
(0.306289 0.632224 0.05)
(0.32163 0.632224 0.05)
(0.335098 0.632224 0.05)
(0.346923 0.632224 0.05)
(0.357304 0.632224 0.05)
(0.366417 0.632224 0.05)
(0.374418 0.632224 0.05)
(0.381443 0.632224 0.05)
(0.38761 0.632224 0.05)
(0.393024 0.632224 0.05)
(0.397778 0.632224 0.05)
(0.0263643 0.646626 0.05)
(0.0758747 0.646626 0.05)
(0.119342 0.646626 0.05)
(0.157503 0.646626 0.05)
(0.191005 0.646626 0.05)
(0.220419 0.646626 0.05)
(0.246241 0.646626 0.05)
(0.268912 0.646626 0.05)
(0.288815 0.646626 0.05)
(0.306289 0.646626 0.05)
(0.32163 0.646626 0.05)
(0.335098 0.646626 0.05)
(0.346923 0.646626 0.05)
(0.357304 0.646626 0.05)
(0.366417 0.646626 0.05)
(0.374418 0.646626 0.05)
(0.381443 0.646626 0.05)
(0.38761 0.646626 0.05)
(0.393024 0.646626 0.05)
(0.397778 0.646626 0.05)
(0.0263643 0.658871 0.05)
(0.0758747 0.658871 0.05)
(0.119342 0.658871 0.05)
(0.157503 0.658871 0.05)
(0.191005 0.658871 0.05)
(0.220419 0.658871 0.05)
(0.246241 0.658871 0.05)
(0.268912 0.658871 0.05)
(0.288815 0.658871 0.05)
(0.306289 0.658871 0.05)
(0.32163 0.658871 0.05)
(0.335098 0.658871 0.05)
(0.346923 0.658871 0.05)
(0.357304 0.658871 0.05)
(0.366417 0.658871 0.05)
(0.374418 0.658871 0.05)
(0.381443 0.658871 0.05)
(0.38761 0.658871 0.05)
(0.393024 0.658871 0.05)
(0.397778 0.658871 0.05)
(0.0263643 0.669282 0.05)
(0.0758747 0.669282 0.05)
(0.119342 0.669282 0.05)
(0.157503 0.669282 0.05)
(0.191005 0.669282 0.05)
(0.220419 0.669282 0.05)
(0.246241 0.669282 0.05)
(0.268912 0.669282 0.05)
(0.288815 0.669282 0.05)
(0.306289 0.669282 0.05)
(0.32163 0.669282 0.05)
(0.335098 0.669282 0.05)
(0.346923 0.669282 0.05)
(0.357304 0.669282 0.05)
(0.366417 0.669282 0.05)
(0.374418 0.669282 0.05)
(0.381443 0.669282 0.05)
(0.38761 0.669282 0.05)
(0.393024 0.669282 0.05)
(0.397778 0.669282 0.05)
(0.0263643 0.678134 0.05)
(0.0758747 0.678134 0.05)
(0.119342 0.678134 0.05)
(0.157503 0.678134 0.05)
(0.191005 0.678134 0.05)
(0.220419 0.678134 0.05)
(0.246241 0.678134 0.05)
(0.268912 0.678134 0.05)
(0.288815 0.678134 0.05)
(0.306289 0.678134 0.05)
(0.32163 0.678134 0.05)
(0.335098 0.678134 0.05)
(0.346923 0.678134 0.05)
(0.357304 0.678134 0.05)
(0.366417 0.678134 0.05)
(0.374418 0.678134 0.05)
(0.381443 0.678134 0.05)
(0.38761 0.678134 0.05)
(0.393024 0.678134 0.05)
(0.397778 0.678134 0.05)
(0.0263643 0.68566 0.05)
(0.0758747 0.68566 0.05)
(0.119342 0.68566 0.05)
(0.157503 0.68566 0.05)
(0.191005 0.68566 0.05)
(0.220419 0.68566 0.05)
(0.246241 0.68566 0.05)
(0.268912 0.68566 0.05)
(0.288815 0.68566 0.05)
(0.306289 0.68566 0.05)
(0.32163 0.68566 0.05)
(0.335098 0.68566 0.05)
(0.346923 0.68566 0.05)
(0.357304 0.68566 0.05)
(0.366417 0.68566 0.05)
(0.374418 0.68566 0.05)
(0.381443 0.68566 0.05)
(0.38761 0.68566 0.05)
(0.393024 0.68566 0.05)
(0.397778 0.68566 0.05)
(0.0263643 0.692059 0.05)
(0.0758747 0.692059 0.05)
(0.119342 0.692059 0.05)
(0.157503 0.692059 0.05)
(0.191005 0.692059 0.05)
(0.220419 0.692059 0.05)
(0.246241 0.692059 0.05)
(0.268912 0.692059 0.05)