/*--------------------------------*- C++ -*----------------------------------*\
| =========                 |                                                 |
| \\      /  F ield         | OpenFOAM: The Open Source CFD Toolbox           |
|  \\    /   O peration     | Version:  4.x                                   |
|   \\  /    A nd           | Web:      www.OpenFOAM.org                      |
|    \\/     M anipulation  |                                                 |
\*---------------------------------------------------------------------------*/
FoamFile
{
    version     2.0;
    format      ascii;
    class       volVectorField;
    location    "60";
    object      kGrad;
}
// * * * * * * * * * * * * * * * * * * * * * * * * * * * * * * * * * * * * * //

dimensions      [0 1 -2 0 0 0 0];

internalField   nonuniform List<vector> 
112000
(
(0.00134054 -0.00023771 -7.24966e-11)
(0.0013292 -0.000672719 8.29219e-11)
(0.0013189 -0.00104403 5.72628e-11)
(0.00130894 -0.00136056 -4.91725e-11)
(0.00130016 -0.00163052 1.3475e-10)
(0.00129274 -0.00186096 -1.28136e-10)
(0.00128653 -0.00205819 9.90544e-11)
(0.00128145 -0.0022275 -1.23216e-10)
(0.00127735 -0.00237322 7.47745e-11)
(0.00127408 -0.00249899 -7.82518e-11)
(0.00127149 -0.00260781 2.93593e-11)
(0.00126947 -0.00270219 -2.00251e-11)
(0.00126788 -0.0027842 4.67585e-12)
(0.00126665 -0.00285559 1.15436e-11)
(0.0012657 -0.00291781 -1.78407e-12)
(0.00126496 -0.00297211 2.58157e-11)
(0.00126439 -0.00301955 3.92516e-12)
(0.00126395 -0.00306102 4.05238e-11)
(0.00126361 -0.0030973 2.11311e-11)
(0.00126335 -0.00312905 5.66356e-11)
(-0.000456108 -0.000204901 -5.88418e-12)
(-0.000419613 -0.000581822 1.37791e-11)
(-0.000380312 -0.000901477 1.01408e-11)
(-0.000341359 -0.00116757 1.12296e-11)
(-0.000303688 -0.00139129 4.26781e-11)
(-0.000268757 -0.00157197 9.85815e-12)
(-0.00023798 -0.00172552 5.62039e-11)
(-0.000211103 -0.00185336 3.51291e-11)
(-0.000187908 -0.00195835 8.94544e-11)
(-0.000168214 -0.00204601 5.33627e-11)
(-0.000151621 -0.00211955 1.01677e-10)
(-0.000137707 -0.00218157 8.00889e-11)
(-0.000126071 -0.00223413 1.01478e-10)
(-0.000116348 -0.0022789 9.30487e-11)
(-0.000108219 -0.00231718 9.61891e-11)
(-0.000101419 -0.00235005 9.23909e-11)
(-9.57214e-05 -0.00237837 8.70781e-11)
(-9.09354e-05 -0.00240283 8.03045e-11)
(-8.68991e-05 -0.00242401 6.82284e-11)
(-8.34667e-05 -0.00244239 5.94641e-11)
(-0.000248656 5.49083e-05 -2.64924e-12)
(-0.000216973 0.000147545 2.49154e-11)
(-0.000164932 0.000253704 3.50003e-11)
(-0.000109519 0.000351068 6.72118e-11)
(-4.00992e-05 0.000446841 8.42352e-11)
(2.15783e-05 0.000549791 8.99759e-11)
(6.41251e-05 0.000657392 1.08443e-10)
(0.000121406 0.000765553 1.32133e-10)
(0.000174825 0.000871861 1.65352e-10)
(0.000216288 0.000974726 1.59824e-10)
(0.000251897 0.00107267 1.85695e-10)
(0.000282149 0.00116465 1.71535e-10)
(0.000307653 0.00125006 1.7622e-10)
(0.000329056 0.0013286 1.57476e-10)
(0.000346972 0.00140028 1.45756e-10)
(0.000361956 0.00146528 1.23259e-10)
(0.000374498 0.0015239 1.03012e-10)
(0.000385004 0.00157656 7.95846e-11)
(0.000393823 0.00162369 5.79118e-11)
(0.000401273 0.00166575 3.55491e-11)
(-0.000136595 3.79233e-05 8.64759e-13)
(-7.45852e-05 0.000131745 5.69252e-11)
(1.62583e-05 0.000218177 9.82718e-11)
(8.80528e-05 0.000311145 1.1966e-10)
(0.000199692 0.000432634 1.52927e-10)
(0.000334071 0.000567036 1.9444e-10)
(0.000459324 0.000722935 2.25256e-10)
(0.000576427 0.00089198 2.35203e-10)
(0.000685554 0.0010673 2.45429e-10)
(0.000784622 0.00124601 2.2607e-10)
(0.000872853 0.00142384 2.2046e-10)
(0.000950352 0.00159728 1.81647e-10)
(0.0010178 0.00176364 1.53888e-10)
(0.00107614 0.00192106 1.07721e-10)
(0.00112637 0.00206832 7.06517e-11)
(0.0011695 0.00220476 3.13245e-11)
(0.00120652 0.00233015 2.49091e-12)
(0.0012383 0.00244462 -2.11717e-11)
(0.0012656 0.0025485 -3.56198e-11)
(0.00128911 0.00264232 -4.48762e-11)
(-2.5106e-05 3.91308e-05 1.03531e-11)
(4.52363e-05 0.000130468 4.10304e-11)
(0.00013666 0.000208391 9.75897e-11)
(0.000296113 0.000325065 1.75848e-10)
(0.000504177 0.000486206 2.83569e-10)
(0.000726296 0.000683024 3.32592e-10)
(0.000960311 0.000920453 3.70084e-10)
(0.00119845 0.00119681 3.77682e-10)
(0.00143208 0.00150548 3.71372e-10)
(0.00165481 0.00183845 3.32985e-10)
(0.00186269 0.00218771 2.98405e-10)
(0.00205371 0.0025457 2.27335e-10)
(0.00222734 0.0029053 1.64163e-10)
(0.00238383 0.00325993 8.24578e-11)
(0.00252372 0.00360367 1.27459e-11)
(0.0026479 0.00393167 -5.119e-11)
(0.00275762 0.00424038 -9.59583e-11)
(0.00285415 0.00452754 -1.26767e-10)
(0.0029388 0.00479202 -1.41104e-10)
(0.00301285 0.00503363 -1.4442e-10)
(5.56715e-05 3.76934e-05 2.11598e-11)
(0.000135196 0.000106872 9.57224e-11)
(0.000290077 0.000207233 1.90195e-10)
(0.000534118 0.000361239 3.30931e-10)
(0.000851853 0.000572195 4.20951e-10)
(0.00123062 0.000865582 4.76725e-10)
(0.00166214 0.00125486 5.16347e-10)
(0.00213035 0.00174366 5.26795e-10)
(0.00262021 0.00233017 5.18461e-10)
(0.0031206 0.00301311 4.76484e-10)
(0.00362356 0.00379036 4.26867e-10)
(0.00412127 0.00465162 3.33702e-10)
(0.00460447 0.0055746 2.37007e-10)
(0.00506275 0.00652867 1.10783e-10)
(0.00548673 0.0074818 -1.04589e-11)
(0.00587059 0.00840665 -1.25889e-10)
(0.00621222 0.00928321 -2.16846e-10)
(0.00651218 0.0100988 -2.86214e-10)
(0.00677305 0.0108471 -3.31067e-10)
(0.00699859 0.0115264 -3.56301e-10)
(0.000113753 2.62887e-05 1.70408e-11)
(0.000224893 9.52027e-05 9.39258e-11)
(0.000444128 0.000206461 2.27263e-10)
(0.00079506 0.000392369 3.65362e-10)
(0.00128585 0.00069275 4.73038e-10)
(0.00192504 0.00115521 5.45969e-10)
(0.00270816 0.00182218 6.00464e-10)
(0.00362614 0.00272623 6.26785e-10)
(0.00468386 0.00391623 6.25463e-10)
(0.00589869 0.00547868 5.80925e-10)
(0.00726565 0.00747014 5.01412e-10)
(0.00873088 0.00984699 3.48867e-10)
(0.0102045 0.0124746 1.50324e-10)
(0.0115956 0.0151887 -1.23281e-10)
(0.0128399 0.0178478 -4.16643e-10)
(0.0139088 0.0203551 -7.02339e-10)
(0.0148007 0.0226565 -9.48656e-10)
(0.0155297 0.0247302 -1.15102e-09)
(0.0161179 0.0265756 -1.3056e-09)
(0.0165898 0.0282045 -1.4166e-09)
(0.000155451 1.45617e-05 3.11228e-11)
(0.000299279 7.69208e-05 1.19177e-10)
(0.000596462 0.00019999 2.67047e-10)
(0.00110074 0.000433984 4.10544e-10)
(0.00185809 0.000878692 5.04137e-10)
(0.00291874 0.00161808 5.61337e-10)
(0.0043238 0.00276854 5.91189e-10)
(0.00615406 0.00446143 5.89934e-10)
(0.00861762 0.00702503 5.16142e-10)
(0.0118947 0.0109235 3.14515e-10)
(0.0158462 0.0162279 -3.228e-11)
(0.0200119 0.0224934 -5.52013e-10)
(0.0238829 0.0290946 -1.21136e-09)
(0.027132 0.0355264 -1.97611e-09)
(0.0296581 0.041489 -2.71688e-09)
(0.0315115 0.0468492 -3.37337e-09)
(0.0328084 0.0515784 -3.90748e-09)
(0.0336765 0.0557053 -4.31882e-09)
(0.0342311 0.0592844 -4.62074e-09)
(0.0345652 0.0623794 -4.82626e-09)
(0.000178728 1.73554e-06 4.48218e-11)
(0.000368636 5.46408e-05 1.31789e-10)
(0.000757476 0.000200867 2.5103e-10)
(0.00146986 0.000508273 4.16603e-10)
(0.00261665 0.00115367 4.77292e-10)
(0.00433282 0.00230404 4.80242e-10)
(0.00681473 0.00422347 3.99599e-10)
(0.0106003 0.00737728 2.18484e-10)
(0.0166798 0.0130292 -3.29926e-10)
(0.0252365 0.022233 -1.37204e-09)
(0.0348381 0.0341889 -2.76806e-09)
(0.0435958 0.0472678 -4.35575e-09)
(0.0504326 0.0602015 -5.98075e-09)
(0.055213 0.0723091 -7.50178e-09)
(0.0582806 0.0833103 -8.79651e-09)
(0.0600829 0.0931398 -9.8455e-09)
(0.0610115 0.101836 -1.06511e-08)
(0.0613662 0.109484 -1.12433e-08)
(0.0613635 0.116186 -1.16686e-08)
(0.061149 0.122046 -1.1954e-08)
(0.0001902 -7.2039e-06 7.14569e-12)
(0.000431829 3.21071e-05 7.28694e-11)
(0.000935298 0.000209966 1.69233e-10)
(0.00190894 0.000633974 2.52256e-10)
(0.00358048 0.00150416 2.91194e-10)
(0.00625695 0.00319851 1.55021e-10)
(0.0105793 0.0062409 -2.35389e-10)
(0.01848 0.0119731 -1.05924e-09)
(0.0321674 0.0232645 -3.2557e-09)
(0.0498877 0.0408932 -6.41448e-09)
(0.0669323 0.061977 -9.6055e-09)
(0.0804529 0.0841131 -1.2524e-08)
(0.0901487 0.106103 -1.5117e-08)
(0.0967488 0.127386 -1.73674e-08)
(0.101069 0.147631 -1.92647e-08)
(0.103767 0.166611 -2.08328e-08)
(0.105329 0.184169 -2.20918e-08)
(0.106113 0.200213 -2.30808e-08)
(0.106386 0.214716 -2.38577e-08)
(0.106328 0.227715 -2.44472e-08)
(0.000192648 -1.77782e-05 -2.45114e-13)
(0.000492586 1.30345e-05 1.95523e-11)
(0.00114034 0.000227339 4.11788e-11)
(0.00240459 0.000787301 -6.17599e-12)
(0.00471943 0.00191573 -1.86217e-10)
(0.00873153 0.00424068 -6.09396e-10)
(0.016064 0.00883494 -1.72882e-09)
(0.0309984 0.0183788 -4.18405e-09)
(0.0559324 0.0367996 -9.59507e-09)
(0.0847724 0.0638941 -1.54537e-08)
(0.110361 0.0953719 -2.0294e-08)
(0.131206 0.129888 -2.44016e-08)
(0.147999 0.166967 -2.80387e-08)
(0.161527 0.206016 -3.12992e-08)
(0.172326 0.246094 -3.41891e-08)
(0.180778 0.286114 -3.67063e-08)
(0.187176 0.324984 -3.8847e-08)
(0.191795 0.361742 -4.0632e-08)
(0.194953 0.395676 -4.21118e-08)
(0.196942 0.426397 -4.32938e-08)
(0.000189531 -2.70433e-05 -2.84316e-11)
(0.000551553 -7.80249e-07 -6.72757e-11)
(0.00135657 0.000248944 -1.48873e-10)
(0.00294655 0.000928643 -3.84964e-10)
(0.00599688 0.00237912 -8.93578e-10)
(0.0117469 0.00538653 -1.8287e-09)
(0.0233323 0.011893 -4.33654e-09)
(0.0471806 0.025331 -9.34685e-09)
(0.085057 0.0503893 -1.87137e-08)
(0.126883 0.0861513 -2.69351e-08)
(0.165374 0.129784 -3.31629e-08)
(0.201586 0.182527 -3.85117e-08)
(0.23623 0.245543 -4.34642e-08)
(0.269004 0.318497 -4.80441e-08)
(0.298999 0.399229 -5.2215e-08)
(0.325189 0.484536 -5.58776e-08)
(0.346576 0.570559 -5.8996e-08)
(0.362557 0.653372 -6.15287e-08)
(0.373274 0.729775 -6.35483e-08)
(0.379418 0.797858 -6.50913e-08)
(0.000183791 -3.37176e-05 -1.71618e-11)
(0.00060772 -9.16828e-06 -1.14299e-10)
(0.00157175 0.000269137 -3.34825e-10)
(0.00352082 0.00104247 -8.09304e-10)
(0.00737606 0.00278499 -1.72182e-09)
(0.0151831 0.00650731 -3.55795e-09)
(0.0314612 0.0146978 -7.52639e-09)
(0.0647886 0.0312131 -1.5451e-08)
(0.116288 0.0614221 -2.91856e-08)
(0.173925 0.104497 -3.90385e-08)
(0.233113 0.162064 -4.63451e-08)
(0.298355 0.240111 -5.29742e-08)
(0.370529 0.34442 -5.92396e-08)
(0.446715 0.476615 -6.49274e-08)
(0.521947 0.632685 -6.9942e-08)
(0.59044 0.804896 -7.41421e-08)
(0.645943 0.982229 -7.73319e-08)
(0.683861 1.15234 -7.95956e-08)
(0.703309 1.30497 -8.10341e-08)
(0.706885 1.4342 -8.187e-08)
(0.000177394 -3.77654e-05 -6.90307e-11)
(0.000659318 -1.34063e-05 -2.42659e-10)
(0.00177287 0.000282152 -5.88775e-10)
(0.00407347 0.00111146 -1.29297e-09)
(0.00877511 0.00303987 -2.6329e-09)
(0.0186522 0.00733793 -5.39041e-09)
(0.0396094 0.0166806 -1.11262e-08)
(0.0821685 0.0354124 -2.19197e-08)
(0.147096 0.0690238 -3.9375e-08)
(0.223476 0.118049 -5.01883e-08)
(0.313021 0.190107 -5.86271e-08)
(0.426586 0.300018 -6.64177e-08)
(0.566794 0.463409 -7.3587e-08)
(0.725653 0.686574 -7.94233e-08)
(0.888995 0.963276 -8.41394e-08)
(1.03846 1.27689 -8.75144e-08)
(1.15225 1.60156 -8.94672e-08)
(1.21392 1.90625 -9.0129e-08)
(1.22025 2.1655 -9.00121e-08)
(1.18104 2.36428 -8.93456e-08)
(0.000171318 -4.00638e-05 -6.89904e-11)
(0.000704733 -1.55922e-05 -3.36939e-10)
(0.00195124 0.000284655 -8.25593e-10)
(0.00457452 0.0011339 -1.7641e-09)
(0.0100797 0.00316155 -3.56516e-09)
(0.0219222 0.0077886 -7.31488e-09)
(0.0472293 0.0178757 -1.4819e-08)
(0.0981876 0.0378587 -2.81005e-08)
(0.175936 0.0733325 -4.84433e-08)
(0.273217 0.127211 -5.99231e-08)
(0.402526 0.213645 -6.95211e-08)
(0.586695 0.359394 -7.85877e-08)
(0.832369 0.594632 -8.57379e-08)
(1.1235 0.934485 -9.04889e-08)
(1.42864 1.36966 -9.36719e-08)
(1.70345 1.86973 -9.52589e-08)
(1.8927 2.38741 -9.52703e-08)
(1.95455 2.8604 -9.42929e-08)
(1.87913 3.238 -9.31717e-08)
(1.69099 3.47712 -9.19947e-08)
(0.000165809 -4.25063e-05 -8.15387e-11)
(0.00074318 -1.69685e-05 -3.76837e-10)
(0.00210319 0.0002769 -9.6399e-10)
(0.00501031 0.00111773 -2.12469e-09)
(0.0112384 0.00317597 -4.41502e-09)
(0.0248466 0.00794873 -9.18485e-09)
(0.0539943 0.0183606 -1.83482e-08)
(0.1123 0.038785 -3.37655e-08)
(0.202072 0.0749172 -5.63558e-08)
(0.321685 0.132583 -6.83525e-08)
(0.497751 0.232606 -7.92353e-08)
(0.770356 0.413938 -8.93624e-08)
(1.15454 0.720618 -9.60666e-08)
(1.6232 1.17681 -9.91068e-08)
(2.11762 1.77174 -1.00118e-07)
(2.556 2.46295 -1.00591e-07)
(2.8289 3.1836 -1.00193e-07)
(2.84941 3.83516 -1.00429e-07)
(2.56874 4.33081 -1.0132e-07)
(2.01415 4.51172 -1.03402e-07)
(0.000160787 -4.81366e-05 -9.68319e-11)
(0.000774902 -1.58879e-05 -4.28477e-10)
(0.00222888 0.000261431 -1.08868e-09)
(0.00537864 0.00107505 -2.44671e-09)
(0.0122334 0.00311487 -5.22108e-09)
(0.0273656 0.00789375 -1.09786e-08)
(0.0597863 0.0183 -2.17028e-08)
(0.124345 0.0385684 -3.88921e-08)
(0.225131 0.0744552 -6.31982e-08)
(0.367403 0.134664 -7.58436e-08)
(0.59368 0.246009 -8.81292e-08)
(0.962967 0.457033 -9.88498e-08)
(1.4992 0.817853 -1.04564e-07)
(2.16517 1.35346 -1.06015e-07)
(2.87436 2.05369 -1.08619e-07)
(3.50395 2.87864 -1.09116e-07)
(3.87623 3.75398 -1.11423e-07)
(3.83412 4.56754 -1.16518e-07)
(3.12965 5.16675 -1.24973e-07)
(1.76347 4.94915 -1.34145e-07)
(0.000156218 -5.25477e-05 -9.11694e-11)
(0.00080085 -1.60963e-05 -3.8308e-10)
(0.00233049 0.000239487 -1.10089e-09)
(0.00568416 0.00101795 -2.62802e-09)
(0.0130684 0.00300781 -5.82611e-09)
(0.0294796 0.00769465 -1.24374e-08)
(0.0646233 0.0178656 -2.45405e-08)
(0.134403 0.0375797 -4.32095e-08)
(0.245028 0.0725972 -6.87207e-08)
(0.40909 0.134067 -8.21249e-08)
(0.684664 0.253214 -9.57397e-08)
(1.14679 0.482707 -1.08303e-07)
(1.82413 0.867197 -1.12938e-07)
(2.67094 1.41926 -1.13736e-07)
(3.58517 2.12548 -1.14748e-07)
(4.41177 2.95557 -1.18781e-07)
(4.91645 3.84949 -1.27419e-07)
(4.82266 4.7417 -1.42207e-07)
(3.14115 5.24108 -1.63456e-07)
(-0.154051 3.71869 -1.84043e-07)
(0.00015206 -5.16327e-05 -1.0558e-10)
(0.000821125 -2.12035e-05 -3.94726e-10)
(0.00241226 0.000212969 -1.12325e-09)
(0.00593499 0.000955995 -2.75056e-09)
(0.0137582 0.00287708 -6.27548e-09)
(0.0312223 0.0074087 -1.35942e-08)
(0.0685955 0.0172014 -2.69113e-08)
(0.142674 0.0361228 -4.68375e-08)
(0.26188 0.069876 -7.34542e-08)
(0.445855 0.131414 -8.79336e-08)
(0.76604 0.254306 -1.0286e-07)
(1.30761 0.489302 -1.13711e-07)
(2.09624 0.865452 -1.17761e-07)
(3.07707 1.36968 -1.19025e-07)
(4.14053 1.96921 -1.22668e-07)
(5.11808 2.61385 -1.31547e-07)
(5.77207 3.18344 -1.47834e-07)
(5.49812 3.55964 -1.75024e-07)
(1.67216 3.88254 -2.14321e-07)
(-4.21282 -1.80143 -2.24809e-07)
(0.000148284 -4.87929e-05 -9.3213e-11)
(0.000836541 -2.81583e-05 -3.51446e-10)
(0.00247798 0.000185946 -1.07051e-09)
(0.00613963 0.00089552 -2.74321e-09)
(0.0143219 0.00273746 -6.44916e-09)
(0.032642 0.00707803 -1.41647e-08)
(0.0718222 0.0164163 -2.81459e-08)
(0.149409 0.0344238 -4.86494e-08)
(0.275939 0.0666933 -7.56965e-08)
(0.477339 0.127316 -9.10352e-08)
(0.835362 0.250266 -1.069e-07)
(1.43887 0.480002 -1.17832e-07)
(2.30222 0.82475 -1.21754e-07)
(3.35393 1.23884 -1.24087e-07)
(4.46458 1.64781 -1.30536e-07)
(5.39704 1.9204 -1.43865e-07)
(5.81763 1.79555 -1.67958e-07)
(5.58017 1.09286 -1.99152e-07)
(-3.26008 -0.56846 -2.45044e-07)
(-10.0624 -10.8089 -2.26478e-07)
(0.00134054 -0.00023771 2.73731e-10)
(0.0013292 -0.000672719 5.31221e-11)
(0.0013189 -0.00104403 3.86839e-10)
(0.00130894 -0.00136056 5.36709e-10)
(0.00130016 -0.00163052 1.87283e-10)
(0.00129274 -0.00186096 7.65137e-10)
(0.00128653 -0.00205819 -6.3685e-12)
(0.00128145 -0.0022275 8.04381e-10)
(0.00127735 -0.00237322 -2.02452e-10)
(0.00127408 -0.00249899 5.24238e-10)
(0.00127149 -0.00260781 -2.14246e-10)
(0.00126947 -0.00270219 3.09602e-10)
(0.00126788 -0.0027842 -1.7292e-10)
(0.00126665 -0.00285559 1.4298e-10)
(0.0012657 -0.00291781 -1.48353e-10)
(0.00126496 -0.00297211 3.48428e-11)
(0.00126439 -0.00301955 -1.42109e-10)
(0.00126395 -0.00306102 -1.44933e-11)
(0.00126361 -0.0030973 -1.5963e-10)
(0.00126335 -0.00312905 -2.41673e-11)
(-0.000456108 -0.000204901 4.87702e-11)
(-0.000419613 -0.000581822 1.33802e-10)
(-0.000380312 -0.000901477 1.30032e-10)
(-0.000341359 -0.00116757 1.41495e-10)
(-0.000303688 -0.00139129 8.3775e-11)
(-0.000268757 -0.00157197 9.83163e-11)
(-0.00023798 -0.00172552 2.54944e-11)
(-0.000211104 -0.00185336 3.80839e-11)
(-0.000187908 -0.00195835 -1.79803e-10)
(-0.000168214 -0.00204601 -8.91129e-11)
(-0.000151621 -0.00211955 -2.69494e-10)
(-0.000137707 -0.00218157 -1.77127e-10)
(-0.000126071 -0.00223413 -3.14639e-10)
(-0.000116348 -0.0022789 -2.49977e-10)
(-0.000108219 -0.00231718 -3.25397e-10)
(-0.000101419 -0.00235005 -2.70447e-10)
(-9.57213e-05 -0.00237836 -2.83962e-10)
(-9.09352e-05 -0.00240283 -2.26957e-10)
(-8.68987e-05 -0.00242401 -2.05563e-10)
(-8.3466e-05 -0.00244239 -1.4224e-10)
(-0.000248656 5.49083e-05 1.76301e-11)
(-0.000216973 0.000147545 8.19186e-11)
(-0.000164932 0.000253704 7.03108e-11)
(-0.000109519 0.000351068 6.26836e-11)
(-4.00991e-05 0.000446841 1.8584e-10)
(2.15783e-05 0.000549791 2.00049e-10)
(6.4125e-05 0.000657392 1.64037e-10)
(0.000121406 0.000765553 8.65916e-11)
(0.000174825 0.000871862 -2.11017e-11)
(0.000216288 0.000974726 5.21272e-12)
(0.000251897 0.00107267 -4.75621e-11)
(0.000282149 0.00116465 2.16573e-11)
(0.000307654 0.00125006 1.59528e-11)
(0.000329056 0.0013286 1.11714e-10)
(0.000346972 0.00140028 1.53745e-10)
(0.000361957 0.00146528 2.49742e-10)
(0.000374498 0.0015239 2.99009e-10)
(0.000385004 0.00157656 3.52447e-10)
(0.000393823 0.00162369 3.71502e-10)
(0.000401273 0.00166575 3.81932e-10)
(-0.000136595 3.79233e-05 1.27636e-11)
(-7.45852e-05 0.000131745 5.65394e-11)
(1.62583e-05 0.000218177 2.58474e-10)
(8.80528e-05 0.000311145 2.52812e-10)
(0.000199692 0.000432634 2.25312e-10)
(0.000334071 0.000567036 2.05931e-10)
(0.000459324 0.000722935 2.12257e-10)
(0.000576427 0.00089198 2.05913e-10)
(0.000685554 0.0010673 1.86994e-10)
(0.000784622 0.00124601 2.4726e-10)
(0.000872853 0.00142384 2.60151e-10)
(0.000950352 0.00159728 3.53112e-10)
(0.0010178 0.00176364 3.87468e-10)
(0.00107614 0.00192106 4.71914e-10)
(0.00112637 0.00206832 4.79149e-10)
(0.0011695 0.00220476 4.78081e-10)
(0.00120652 0.00233015 4.00136e-10)
(0.0012383 0.00244462 2.90913e-10)
(0.0012656 0.0025485 1.31214e-10)
(0.00128911 0.00264232 -2.96391e-11)
(-2.5106e-05 3.91308e-05 9.54588e-11)
(4.52363e-05 0.000130468 1.3211e-10)
(0.00013666 0.000208391 1.33126e-10)
(0.000296113 0.000325065 1.10439e-10)
(0.000504177 0.000486206 1.06371e-10)
(0.000726296 0.000683024 1.56188e-10)
(0.000960311 0.000920453 1.95858e-10)
(0.00119845 0.00119681 2.12182e-10)
(0.00143208 0.00150548 2.29721e-10)
(0.00165481 0.00183845 3.20738e-10)
(0.00186269 0.00218772 3.74871e-10)
(0.00205371 0.0025457 5.05529e-10)
(0.00222734 0.0029053 5.68295e-10)
(0.00238383 0.00325993 6.52491e-10)
(0.00252372 0.00360367 6.11543e-10)
(0.0026479 0.00393167 5.17476e-10)
(0.00275762 0.00424038 3.11127e-10)
(0.00285415 0.00452754 5.43538e-11)
(0.0029388 0.00479202 -2.57152e-10)
(0.00301285 0.00503363 -5.50873e-10)
(5.56716e-05 3.76934e-05 5.4429e-11)
(0.000135196 0.000106872 1.36819e-10)
(0.000290077 0.000207233 1.66741e-10)
(0.000534118 0.000361239 2.24148e-10)
(0.000851853 0.000572195 2.89534e-10)
(0.00123062 0.000865583 3.72939e-10)
(0.00166214 0.00125486 4.53742e-10)
(0.00213035 0.00174366 5.19974e-10)
(0.00262021 0.00233017 6.05048e-10)
(0.0031206 0.00301311 7.75178e-10)
(0.00362356 0.00379037 9.52125e-10)
(0.00412127 0.00465162 1.2494e-09)
(0.00460447 0.0055746 1.53046e-09)
(0.00506275 0.00652867 1.84807e-09)
(0.00548673 0.0074818 2.01364e-09)
(0.00587059 0.00840665 2.0871e-09)
(0.00621222 0.00928321 2.0084e-09)
(0.00651218 0.0100988 1.8509e-09)
(0.00677305 0.0108472 1.64033e-09)
(0.00699859 0.0115264 1.45579e-09)
(0.000113753 2.62887e-05 -2.85214e-11)
(0.000224893 9.52026e-05 -2.48374e-12)
(0.000444128 0.000206461 1.15074e-10)
(0.000795061 0.000392369 3.30345e-10)
(0.00128585 0.00069275 4.86048e-10)
(0.00192504 0.00115521 6.34669e-10)
(0.00270816 0.00182218 7.83794e-10)
(0.00362614 0.00272623 9.22045e-10)
(0.00468386 0.00391623 1.13122e-09)
(0.00589869 0.00547868 1.54416e-09)
(0.00726565 0.00747014 2.19194e-09)
(0.00873088 0.009847 3.21327e-09)
(0.0102045 0.0124747 4.43235e-09)
(0.0115956 0.0151887 5.7137e-09)
(0.0128399 0.0178478 6.77068e-09)
(0.0139088 0.0203551 7.61488e-09)
(0.0148007 0.0226565 8.21926e-09)
(0.0155297 0.0247302 8.6903e-09)
(0.0161179 0.0265756 9.1623e-09)
(0.0165898 0.0282045 9.67779e-09)
(0.000155451 1.45617e-05 -2.2502e-11)
(0.000299279 7.69208e-05 4.61289e-11)
(0.000596462 0.00019999 2.32983e-10)
(0.00110074 0.000433984 5.45129e-10)
(0.00185809 0.000878692 8.22565e-10)
(0.00291874 0.00161808 1.07488e-09)
(0.0043238 0.00276854 1.34041e-09)
(0.00615406 0.00446143 1.59751e-09)
(0.00861762 0.00702503 2.18203e-09)
(0.0118947 0.0109235 3.61199e-09)
(0.0158462 0.0162279 6.10222e-09)
(0.0200119 0.0224935 9.51574e-09)
(0.0238829 0.0290946 1.308e-08)
(0.027132 0.0355264 1.61882e-08)
(0.0296581 0.041489 1.85066e-08)
(0.0315115 0.0468492 2.01898e-08)
(0.0328084 0.0515784 2.14392e-08)
(0.0336765 0.0557053 2.25656e-08)
(0.0342311 0.0592845 2.39119e-08)
(0.0345652 0.0623794 2.54097e-08)
(0.000178728 1.73554e-06 -7.60036e-11)
(0.000368636 5.46408e-05 3.96705e-11)
(0.000757476 0.000200867 2.61192e-10)
(0.00146986 0.000508273 6.61422e-10)
(0.00261665 0.00115367 1.16418e-09)
(0.00433282 0.00230404 1.55168e-09)
(0.00681473 0.00422347 1.9708e-09)
(0.0106003 0.00737728 2.49349e-09)
(0.0166798 0.0130292 4.61111e-09)
(0.0252365 0.022233 9.62145e-09)
(0.0348381 0.0341889 1.67559e-08)
(0.0435958 0.0472678 2.39735e-08)
(0.0504326 0.0602015 2.94308e-08)
(0.055213 0.0723091 3.2766e-08)
(0.0582806 0.0833103 3.44019e-08)
(0.0600829 0.0931398 3.51302e-08)
(0.0610115 0.101836 3.56391e-08)
(0.0613662 0.109484 3.64899e-08)
(0.0613635 0.116186 3.81571e-08)
(0.061149 0.122046 4.03369e-08)
(0.0001902 -7.20382e-06 -2.20592e-11)
(0.000431829 3.21073e-05 1.06901e-10)
(0.000935298 0.000209966 3.98728e-10)
(0.00190894 0.000633974 7.93436e-10)
(0.00358048 0.00150416 1.44868e-09)
(0.00625695 0.00319851 1.7597e-09)
(0.0105793 0.0062409 2.30362e-09)
(0.01848 0.0119731 3.83145e-09)
(0.0321674 0.0232645 1.05773e-08)
(0.0498877 0.0408932 2.25265e-08)
(0.0669323 0.0619771 3.45685e-08)
(0.0804529 0.0841131 4.29823e-08)
(0.0901487 0.106103 4.731e-08)
(0.0967488 0.127386 4.88519e-08)
(0.101069 0.147631 4.89338e-08)
(0.103767 0.166611 4.87503e-08)
(0.105329 0.184169 4.90866e-08)
(0.106113 0.200213 5.04374e-08)
(0.106386 0.214716 5.32037e-08)
(0.106328 0.227715 5.67802e-08)
(0.000192648 -1.77781e-05 5.18966e-11)
(0.000492586 1.30348e-05 3.45597e-10)
(0.00114034 0.000227339 7.40908e-10)
(0.00240459 0.000787302 1.1291e-09)
(0.00471943 0.00191573 1.65294e-09)
(0.00873153 0.00424068 1.66056e-09)
(0.016064 0.00883494 2.80456e-09)
(0.0309985 0.0183788 7.28566e-09)
(0.0559325 0.0367996 2.1639e-08)
(0.0847724 0.0638941 4.05602e-08)
(0.110361 0.095372 5.48933e-08)
(0.131206 0.129888 6.34026e-08)
(0.147999 0.166967 6.78969e-08)
(0.161527 0.206016 7.03518e-08)
(0.172326 0.246095 7.21585e-08)
(0.180778 0.286114 7.4335e-08)
(0.187176 0.324984 7.7384e-08)
(0.191795 0.361742 8.15599e-08)
(0.194953 0.395676 8.7219e-08)
(0.196942 0.426397 9.35589e-08)
(0.000189532 -2.70433e-05 1.40894e-10)
(0.000551553 -7.80159e-07 5.75579e-10)
(0.00135657 0.000248944 1.01657e-09)
(0.00294655 0.000928643 1.29443e-09)
(0.00599688 0.00237912 1.45444e-09)
(0.0117469 0.00538653 1.4422e-09)
(0.0233323 0.011893 4.63182e-09)
(0.0471806 0.0253311 1.39722e-08)
(0.085057 0.0503893 3.58874e-08)
(0.126883 0.0861513 6.14897e-08)
(0.165374 0.129784 7.96301e-08)
(0.201586 0.182527 9.23049e-08)
(0.23623 0.245543 1.02222e-07)
(0.269004 0.318497 1.1102e-07)
(0.298999 0.399229 1.19852e-07)
(0.325189 0.484537 1.29247e-07)
(0.346576 0.570559 1.39283e-07)
(0.362557 0.653372 1.49903e-07)
(0.373274 0.729776 1.61215e-07)
(0.379418 0.797858 1.72676e-07)
(0.000183792 -3.37176e-05 7.52363e-11)
(0.00060772 -9.16822e-06 4.95351e-10)
(0.00157175 0.000269137 8.65931e-10)
(0.00352082 0.00104247 9.16453e-10)
(0.00737606 0.00278498 8.38007e-10)
(0.0151831 0.00650731 1.64928e-09)
(0.0314612 0.0146978 6.65082e-09)
(0.0647886 0.0312131 2.20335e-08)
(0.116288 0.0614221 5.47843e-08)
(0.173925 0.104497 8.829e-08)
(0.233113 0.162065 1.14288e-07)
(0.298355 0.240111 1.37276e-07)
(0.370529 0.34442 1.59316e-07)
(0.446715 0.476615 1.81358e-07)
(0.521947 0.632686 2.04015e-07)
(0.59044 0.804896 2.2698e-07)
(0.645943 0.982229 2.49708e-07)
(0.683861 1.15234 2.7059e-07)
(0.703309 1.30497 2.90535e-07)
(0.706885 1.4342 3.08549e-07)
(0.000177394 -3.77654e-05 1.4819e-10)
(0.000659318 -1.34062e-05 5.98496e-10)
(0.00177287 0.000282151 8.29132e-10)
(0.00407347 0.00111145 6.23104e-10)
(0.00877511 0.00303987 4.91788e-10)
(0.0186522 0.00733794 2.31883e-09)
(0.0396095 0.0166806 1.07877e-08)
(0.0821685 0.0354124 3.37677e-08)
(0.147096 0.0690239 7.88752e-08)
(0.223476 0.118049 1.22141e-07)
(0.313021 0.190107 1.61064e-07)
(0.426586 0.300018 2.00587e-07)
(0.566794 0.463409 2.42074e-07)
(0.725653 0.686574 2.8463e-07)
(0.888995 0.963276 3.27931e-07)
(1.03846 1.27689 3.70397e-07)
(1.15225 1.60156 4.08434e-07)
(1.21392 1.90625 4.40556e-07)
(1.22025 2.1655 4.66639e-07)
(1.18104 2.36428 4.88409e-07)
(0.000171318 -4.00638e-05 1.07074e-10)
(0.000704734 -1.55923e-05 5.54648e-10)
(0.00195124 0.000284654 7.03738e-10)
(0.00457452 0.0011339 4.13441e-10)
(0.0100797 0.00316156 6.31345e-10)
(0.0219222 0.0077886 4.18386e-09)
(0.0472293 0.0178758 1.73122e-08)
(0.0981877 0.0378587 4.89643e-08)
(0.175936 0.0733326 1.07035e-07)
(0.273217 0.127211 1.62066e-07)
(0.402526 0.213645 2.17006e-07)
(0.586695 0.359394 2.78838e-07)
(0.832369 0.594632 3.44931e-07)
(1.1235 0.934486 4.1202e-07)
(1.42864 1.36966 4.80173e-07)
(1.70345 1.86973 5.41826e-07)
(1.8927 2.38741 5.91752e-07)
(1.95455 2.8604 6.27484e-07)
(1.87913 3.238 6.52034e-07)
(1.69099 3.47712 6.68137e-07)
(0.000165809 -4.2506e-05 1.50769e-10)
(0.00074318 -1.69683e-05 5.98829e-10)
(0.00210319 0.0002769 6.90985e-10)
(0.00501031 0.00111773 4.82953e-10)
(0.0112384 0.00317598 1.39898e-09)
(0.0248466 0.00794874 7.19882e-09)
(0.0539943 0.0183606 2.5635e-08)
(0.1123 0.038785 6.60572e-08)
(0.202072 0.0749173 1.3662e-07)
(0.321685 0.132583 2.03558e-07)
(0.497751 0.232606 2.76494e-07)
(0.770356 0.413938 3.64284e-07)
(1.15454 0.720618 4.55869e-07)
(1.6232 1.17681 5.46484e-07)
(2.11762 1.77174 6.32178e-07)
(2.556 2.46295 7.06048e-07)
(2.8289 3.18361 7.56985e-07)
(2.84941 3.83516 7.87395e-07)
(2.56874 4.33081 8.00023e-07)
(2.01415 4.51172 8.01306e-07)
(0.000160787 -4.81362e-05 2.80104e-10)
(0.000774903 -1.58877e-05 7.39459e-10)
(0.00222888 0.000261432 8.4656e-10)
(0.00537864 0.00107505 8.62778e-10)
(0.0122334 0.00311487 2.65686e-09)
(0.0273657 0.00789377 1.08689e-08)
(0.0597864 0.0183 3.44734e-08)
(0.124346 0.0385684 8.26732e-08)
(0.225132 0.0744553 1.6461e-07)
(0.367403 0.134664 2.43591e-07)
(0.59368 0.246009 3.34987e-07)
(0.962967 0.457033 4.45165e-07)
(1.4992 0.817853 5.56609e-07)
(2.16517 1.35346 6.60843e-07)
(2.87436 2.0537 8.00629e-07)
(3.50395 2.87864 8.55466e-07)
(3.87623 3.75398 8.90318e-07)
(3.83412 4.56754 9.04279e-07)
(3.12965 5.16675 8.97287e-07)
(1.76347 4.94915 8.75468e-07)
(0.000156218 -5.25472e-05 3.01297e-10)
(0.00080085 -1.60957e-05 6.94585e-10)
(0.00233049 0.000239489 9.56588e-10)
(0.00568416 0.00101795 1.39425e-09)
(0.0130685 0.00300782 4.20116e-09)
(0.0294796 0.00769467 1.45802e-08)
(0.0646233 0.0178656 4.20075e-08)
(0.134403 0.0375798 9.58185e-08)
(0.245028 0.0725973 1.87296e-07)
(0.40909 0.134067 2.76827e-07)
(0.684664 0.253215 3.84081e-07)
(1.14679 0.482707 5.40806e-07)
(1.82413 0.867198 6.60501e-07)
(2.67094 1.41926 7.69066e-07)
(3.58517 2.12548 8.45385e-07)
(4.41177 2.95557 8.99899e-07)
(4.91645 3.84949 9.29604e-07)
(4.82266 4.7417 9.34649e-07)
(3.14115 5.24108 9.15421e-07)
(-0.154051 3.71869 9.07743e-07)
(0.00015206 -5.16323e-05 4.83124e-10)
(0.000821125 -2.12029e-05 9.65985e-10)
(0.00241226 0.00021297 1.47057e-09)
(0.00593499 0.000955999 2.42747e-09)
(0.0137582 0.00287709 6.43887e-09)
(0.0312223 0.00740872 1.94082e-08)
(0.0685956 0.0172014 5.14829e-08)
(0.142674 0.0361228 1.12603e-07)
(0.26188 0.0698761 2.17724e-07)
(0.445855 0.131414 3.19605e-07)
(0.76604 0.254306 4.42376e-07)
(1.30761 0.489302 5.71721e-07)
(2.09624 0.865452 6.96563e-07)
(3.07707 1.36968 8.0234e-07)
(4.14053 1.96921 8.80579e-07)
(5.11808 2.61385 9.31177e-07)
(5.77207 3.18344 9.5609e-07)
(5.49812 3.55964 9.63238e-07)
(1.67216 3.88254 9.57471e-07)
(-4.21282 -1.80143 9.38316e-07)
(0.000148284 -4.87929e-05 3.88079e-10)
(0.000836541 -2.81581e-05 8.3697e-10)
(0.00247798 0.000185948 1.4333e-09)
(0.00613963 0.000895523 2.61177e-09)
(0.0143219 0.00273747 6.85165e-09)
(0.032642 0.00707805 1.96741e-08)
(0.0718223 0.0164163 5.03844e-08)
(0.149409 0.0344238 1.15236e-07)
(0.275939 0.0666933 2.2299e-07)
(0.477339 0.127316 3.28991e-07)
(0.835363 0.250266 4.587e-07)
(1.43887 0.480002 5.98241e-07)
(2.30222 0.82475 7.25603e-07)
(3.35393 1.23884 8.28358e-07)
(4.46458 1.64781 9.01718e-07)
(5.39704 1.9204 9.47562e-07)
(5.81763 1.79555 9.64227e-07)
(5.58017 1.09285 9.69812e-07)
(-3.26008 -0.56846 9.5824e-07)
(-10.0624 -10.8089 8.31804e-07)
(0.00134054 -0.00023771 1.3021e-10)
(0.0013292 -0.000672719 -1.14315e-10)
(0.0013189 -0.00104403 6.9189e-11)
(0.00130894 -0.00136056 1.29533e-10)
(0.00130016 -0.00163052 4.86193e-11)
(0.00129274 -0.00186096 2.0094e-10)
(0.00128653 -0.00205819 2.44926e-11)
(0.00128145 -0.0022275 1.78642e-10)
(0.00127735 -0.00237322 5.62256e-11)
(0.00127408 -0.00249899 1.19569e-10)
(0.00127149 -0.00260781 6.33707e-11)
(0.00126947 -0.00270219 6.59939e-11)
(0.00126788 -0.0027842 4.49854e-11)
(0.00126665 -0.00285559 2.68619e-11)
(0.0012657 -0.00291781 2.01915e-11)
(0.00126496 -0.00297211 -1.80789e-12)
(0.00126439 -0.00301955 -4.90535e-12)
(0.00126395 -0.00306102 -2.62463e-11)
(0.00126361 -0.0030973 -2.80699e-11)
(0.00126335 -0.00312905 -4.55796e-11)
(-0.000456108 -0.000204901 1.36632e-11)
(-0.000419613 -0.000581822 5.54837e-11)
(-0.000380312 -0.000901477 7.37199e-11)
(-0.000341359 -0.00116757 9.06811e-11)
(-0.000303688 -0.00139129 6.35649e-11)
(-0.000268757 -0.00157197 6.28116e-11)
(-0.00023798 -0.00172552 2.39749e-11)
(-0.000211104 -0.00185336 4.84277e-11)
(-0.000187909 -0.00195835 -1.01181e-11)
(-0.000168214 -0.00204601 -5.505e-12)
(-0.000151621 -0.00211955 -4.77438e-11)
(-0.000137707 -0.00218157 -5.47635e-11)