/*--------------------------------*- C++ -*----------------------------------*\
| =========                 |                                                 |
| \\      /  F ield         | OpenFOAM: The Open Source CFD Toolbox           |
|  \\    /   O peration     | Version:  4.x                                   |
|   \\  /    A nd           | Web:      www.OpenFOAM.org                      |
|    \\/     M anipulation  |                                                 |
\*---------------------------------------------------------------------------*/
FoamFile
{
    version     2.0;
    format      ascii;
    class       volVectorField;
    location    "60";
    object      pGrad;
}
// * * * * * * * * * * * * * * * * * * * * * * * * * * * * * * * * * * * * * //

dimensions      [0 1 -2 0 0 0 0];

internalField   nonuniform List<vector> 
112000
(
(-0.0188188 0.0125938 5.11109e-10)
(-0.0479395 0.0146398 -3.14651e-10)
(-0.0617092 0.0158451 9.15546e-10)
(-0.0709578 0.0149127 -8.16892e-10)
(-0.0821786 0.013365 1.443e-09)
(-0.0914358 0.0116951 -4.15761e-10)
(-0.0981921 0.00990284 -1.09438e-09)
(-0.103424 0.00809713 -1.25367e-09)
(-0.107417 0.00636664 3.10517e-10)
(-0.110348 0.00475247 7.63433e-12)
(-0.112454 0.00327518 -2.62182e-09)
(-0.113935 0.00194269 5.81905e-10)
(-0.11494 0.000753289 -3.45392e-09)
(-0.115589 -0.000300532 -1.90906e-09)
(-0.115978 -0.00122927 -4.91133e-09)
(-0.116177 -0.00204471 -5.84091e-09)
(-0.116244 -0.00275876 -7.59676e-09)
(-0.11622 -0.00338278 -9.28689e-09)
(-0.116133 -0.00392735 -9.73739e-09)
(-0.115999 -0.00440251 -1.15027e-08)
(-0.0146482 0.0536606 2.0003e-10)
(-0.0409706 0.0554848 -3.7968e-11)
(-0.0613766 0.0548633 4.98693e-10)
(-0.0780856 0.0509441 2.88998e-10)
(-0.0925705 0.045794 1.45911e-09)
(-0.10417 0.0401487 8.62846e-10)
(-0.113235 0.0342086 -8.39299e-11)
(-0.120237 0.0282725 7.97142e-10)
(-0.125515 0.0225698 1.87772e-09)
(-0.129389 0.0172316 2.91343e-09)
(-0.132157 0.01233 1.61327e-09)
(-0.134071 0.00789509 5.29415e-09)
(-0.135337 0.00392578 3.85836e-09)
(-0.136119 0.000401398 6.52914e-09)
(-0.136547 -0.00270973 6.42481e-09)
(-0.136721 -0.00544481 7.95657e-09)
(-0.136714 -0.00784237 9.00089e-09)
(-0.136582 -0.00994003 1.00294e-08)
(-0.136372 -0.0117731 1.10656e-08)
(-0.136115 -0.0133744 1.12062e-08)
(-0.0150326 0.105473 7.75666e-10)
(-0.0449612 0.104032 3.63364e-10)
(-0.0716987 0.100057 6.25226e-10)
(-0.094028 0.0935529 3.9784e-10)
(-0.113394 0.0852848 1.02188e-09)
(-0.12955 0.0757693 6.50784e-10)
(-0.142651 0.0655167 -4.10682e-10)
(-0.152995 0.0550295 6.0717e-11)
(-0.160926 0.0447188 4.63129e-10)
(-0.166828 0.0348839 1.48964e-09)
(-0.171076 0.0257195 5.1851e-10)
(-0.17401 0.0173313 3.89433e-09)
(-0.175931 0.00975777 3.69995e-09)
(-0.177087 0.0029895 7.12267e-09)
(-0.177681 -0.00301307 8.4429e-09)
(-0.177872 -0.00830872 1.16098e-08)
(-0.177782 -0.0129615 1.31594e-08)
(-0.177506 -0.017038 1.4139e-08)
(-0.17712 -0.0206037 1.32125e-08)
(-0.176639 -0.0237193 1.16589e-08)
(-0.0168303 0.153006 4.29807e-10)
(-0.0503642 0.151701 8.94892e-11)
(-0.0820277 0.148379 3.82312e-10)
(-0.110911 0.142001 2.73268e-10)
(-0.137295 0.132642 7.93823e-10)
(-0.160539 0.12067 5.29684e-10)
(-0.180354 0.106727 -5.78847e-10)
(-0.196684 0.0915876 -5.24727e-10)
(-0.209673 0.0760021 -5.11462e-10)
(-0.21964 0.0606031 2.41766e-10)
(-0.227005 0.0458643 -5.1582e-10)
(-0.232218 0.0320993 2.64114e-09)
(-0.235711 0.0194825 3.03365e-09)
(-0.237871 0.00808301 6.86282e-09)
(-0.239043 -0.00210904 8.84402e-09)
(-0.239491 -0.0111533 1.18605e-08)
(-0.239411 -0.01913 1.18259e-08)
(-0.238981 -0.0261361 1.14752e-08)
(-0.238339 -0.0322728 9.67302e-09)
(-0.237521 -0.0376387 7.94529e-09)
(-0.0169371 0.198399 1.742e-09)
(-0.0521451 0.199607 -1.11374e-10)
(-0.0883525 0.199804 8.73637e-11)
(-0.124253 0.196735 -2.66323e-10)
(-0.159548 0.189343 4.14534e-11)
(-0.192929 0.177308 -2.88451e-10)
(-0.223212 0.161074 -1.45123e-09)
(-0.249533 0.141605 -1.34677e-09)
(-0.271462 0.120084 -1.23915e-09)
(-0.288995 0.0976719 -5.17399e-10)
(-0.302441 0.0753574 -8.98644e-10)
(-0.312309 0.0538951 2.892e-09)
(-0.319185 0.0337902 4.27757e-09)
(-0.323673 0.0153404 9.50838e-09)
(-0.326352 -0.00134743 1.25796e-08)
(-0.327651 -0.0162676 1.61683e-08)
(-0.327915 -0.0294903 1.63367e-08)
(-0.327485 -0.0411378 1.60383e-08)
(-0.326615 -0.051355 1.4273e-08)
(-0.325396 -0.0602921 1.22045e-08)
(-0.0155595 0.236653 -1.98396e-09)
(-0.0491056 0.241814 -1.1754e-09)
(-0.0869776 0.249147 -1.77866e-11)
(-0.128787 0.254029 -5.21574e-10)
(-0.173843 0.253627 -3.57799e-10)
(-0.220123 0.246162 -7.12096e-10)
(-0.265219 0.231211 -1.79075e-09)
(-0.306914 0.2095 -1.93331e-09)
(-0.343594 0.182515 -1.95248e-09)
(-0.374383 0.152035 -1.21761e-09)
(-0.399056 0.119833 -1.12214e-09)
(-0.417926 0.0874797 2.96446e-09)
(-0.431616 0.0562058 5.11305e-09)
(-0.44102 0.0268804 1.12534e-08)
(-0.44703 -2.65818e-05 1.48742e-08)
(-0.45031 -0.0242605 1.86785e-08)
(-0.451544 -0.0458063 1.88055e-08)
(-0.451362 -0.0647939 1.84457e-08)
(-0.450238 -0.0814272 1.6595e-08)
(-0.448357 -0.0959415 1.41863e-08)
(-0.0120567 0.265074 5.25007e-10)
(-0.0394513 0.275836 -3.33378e-10)
(-0.0748453 0.293718 -8.00547e-10)
(-0.119734 0.31151 -1.31544e-09)
(-0.173607 0.324349 -9.08926e-10)
(-0.234344 0.32818 -1.11454e-09)
(-0.298407 0.320675 -2.07846e-09)
(-0.361861 0.301405 -2.24817e-09)
(-0.421275 0.271479 -2.04608e-09)
(-0.474122 0.232849 -1.24256e-09)
(-0.518748 0.188157 -5.61127e-10)
(-0.554438 0.140479 3.83706e-09)
(-0.58129 0.0926935 6.87554e-09)
(-0.600301 0.0468648 1.38428e-08)
(-0.612619 0.00432767 1.85883e-08)
(-0.619364 -0.0342569 2.28762e-08)
(-0.62202 -0.0687433 2.34358e-08)
(-0.621847 -0.0992543 2.36289e-08)
(-0.619799 -0.126056 2.21568e-08)
(-0.616283 -0.149483 2.01524e-08)
(-0.00674858 0.281912 -2.2534e-09)
(-0.0236886 0.298863 -2.21731e-09)
(-0.0517015 0.329342 -1.9286e-09)
(-0.0950467 0.363951 -1.64449e-09)
(-0.154231 0.396243 -7.94002e-10)
(-0.228368 0.419443 -1.04065e-09)
(-0.313675 0.428205 -1.92822e-09)
(-0.40487 0.419613 -2.19942e-09)
(-0.496834 0.392685 -1.44984e-09)
(-0.58467 0.347868 2.81527e-10)
(-0.663008 0.288793 2.50511e-09)
(-0.727404 0.221511 8.09577e-09)
(-0.776413 0.151261 1.25865e-08)
(-0.811123 0.0817375 2.01414e-08)
(-0.833617 0.0155314 2.49236e-08)
(-0.846644 -0.0458835 2.91447e-08)
(-0.852859 -0.101708 3.00455e-08)
(-0.854233 -0.151643 3.06739e-08)
(-0.852253 -0.195773 2.99858e-08)
(-0.847569 -0.234423 2.82689e-08)
(-0.000164047 0.287483 -4.95476e-09)
(-0.00326333 0.310342 -4.15819e-09)
(-0.0192526 0.353735 -3.06108e-09)
(-0.0553963 0.406952 -2.65741e-09)
(-0.113895 0.463257 -1.86463e-09)
(-0.196883 0.51348 -1.73561e-09)
(-0.30198 0.548733 -1.8814e-09)
(-0.424442 0.562315 -1.31432e-09)
(-0.559583 0.548183 1.49667e-09)
(-0.698638 0.502908 6.47373e-09)
(-0.827104 0.431942 1.18006e-08)
(-0.934852 0.344173 1.88512e-08)
(-1.02018 0.246395 2.45113e-08)
(-1.08444 0.14453 3.19057e-08)
(-1.12999 0.043422 3.64717e-08)
(-1.15981 -0.0531387 4.05374e-08)
(-1.17665 -0.142506 4.21173e-08)
(-1.18331 -0.223207 4.30014e-08)
(-1.18237 -0.294743 4.30468e-08)
(-1.17521 -0.357261 4.10868e-08)
(0.00696201 0.283444 -2.93561e-09)
(0.0196078 0.311057 -4.90722e-09)
(0.0191046 0.36586 -3.83525e-09)
(-0.0043578 0.43682 -3.95104e-09)
(-0.0548149 0.518604 -3.00779e-09)
(-0.13897 0.600743 -2.34477e-09)
(-0.257789 0.671545 -9.86445e-10)
(-0.410859 0.719814 9.9903e-10)
(-0.597207 0.732052 9.49969e-09)
(-0.800635 0.700202 2.12814e-08)
(-0.994675 0.631407 3.0762e-08)
(-1.16597 0.533286 3.95495e-08)
(-1.31126 0.41153 4.62321e-08)
(-1.42824 0.273059 5.33707e-08)
(-1.51635 0.126229 5.78822e-08)
(-1.57676 -0.0206408 6.17039e-08)
(-1.61261 -0.160878 6.3276e-08)
(-1.62829 -0.290001 6.38383e-08)
(-1.6283 -0.405618 6.37869e-08)
(-1.61523 -0.506916 6.15599e-08)
(0.0139719 0.272227 -4.95739e-09)
(0.0427736 0.30299 -7.31009e-09)
(0.0596069 0.366521 -5.91307e-09)
(0.0530204 0.452207 -6.10654e-09)
(0.0175901 0.55756 -4.09684e-09)
(-0.0585265 0.672455 -1.27082e-09)
(-0.181225 0.784217 2.665e-09)
(-0.35811 0.877074 8.93891e-09)
(-0.593519 0.932201 2.59075e-08)
(-0.861703 0.943369 4.65656e-08)
(-1.12799 0.911704 5.71612e-08)
(-1.38146 0.832535 6.38898e-08)
(-1.61762 0.702964 6.84985e-08)
(-1.826 0.527942 7.27336e-08)
(-1.99549 0.320504 7.52986e-08)
(-2.12017 0.0973146 7.76399e-08)
(-2.20035 -0.12625 7.78115e-08)
(-2.24093 -0.33836 7.74012e-08)
(-2.24888 -0.531362 7.62547e-08)
(-2.22901 -0.70138 7.29044e-08)
(0.0203906 0.256331 -3.83091e-09)
(0.0645753 0.288557 -9.51351e-09)
(0.0990236 0.357722 -9.01987e-09)
(0.111619 0.453812 -1.0343e-08)
(0.0965014 0.578271 -7.70175e-09)
(0.0371273 0.722687 -1.63879e-09)
(-0.0784946 0.876018 6.18159e-09)
(-0.266177 1.01998 1.9459e-08)
(-0.52874 1.13719 5.04904e-08)
(-0.838171 1.23164 7.22203e-08)
(-1.17287 1.2873 8.23333e-08)
(-1.53367 1.26955 8.43945e-08)
(-1.91135 1.15748 8.60692e-08)
(-2.27717 0.949604 8.83447e-08)
(-2.5973 0.66276 9.18329e-08)
(-2.84794 0.325756 9.36045e-08)
(-3.01992 -0.0314286 9.74823e-08)
(-3.11544 -0.382877 9.77747e-08)
(-3.14402 -0.70931 9.635e-08)
(-3.11412 -0.999036 9.31631e-08)
(0.0259587 0.237921 -1.14334e-08)
(0.0840179 0.270131 -1.53382e-08)
(0.135116 0.342034 -1.5289e-08)
(0.167375 0.443912 -1.75808e-08)
(0.175504 0.581701 -1.36933e-08)
(0.139548 0.749453 -3.24608e-09)
(0.0423029 0.94073 1.09008e-08)
(-0.137023 1.13972 3.496e-08)
(-0.392504 1.33771 7.07339e-08)
(-0.705165 1.54509 9.54792e-08)
(-1.09558 1.72907 9.6158e-08)
(-1.58713 1.82312 9.79495e-08)
(-2.16137 1.77332 9.89489e-08)
(-2.76591 1.55662 1.00769e-07)
(-3.3322 1.18742 1.01376e-07)
(-3.80393 0.704172 1.03591e-07)
(-4.14972 0.153637 1.03083e-07)
(-4.35849 -0.416669 1.04068e-07)
(-4.43666 -0.964527 1.01745e-07)
(-4.39531 -1.45888 1.00157e-07)
(0.0305939 0.218675 -3.96367e-09)
(0.100681 0.249722 -1.43836e-08)
(0.166702 0.322 -1.73584e-08)
(0.21765 0.425598 -2.25785e-08)
(0.249704 0.570667 -1.91758e-08)
(0.241285 0.754397 -4.73989e-09)
(0.172686 0.976989 1.4398e-08)
(0.0228398 1.23003 4.94948e-08)
(-0.19414 1.51863 9.1152e-08)
(-0.474608 1.85094 1.00339e-07)
(-0.88801 2.18229 1.00781e-07)
(-1.50176 2.42891 1.01564e-07)
(-2.31009 2.50565 1.05348e-07)
(-3.23445 2.34852 1.06349e-07)
(-4.16064 1.93917 1.05698e-07)
(-4.98968 1.30874 1.05768e-07)
(-5.64969 0.511888 1.10139e-07)
(-6.09075 -0.380748 1.1469e-07)
(-6.29274 -1.28839 1.18719e-07)
(-6.25765 -2.13394 1.17987e-07)
(0.0343315 0.199766 -1.07765e-08)
(0.114554 0.228856 -1.20934e-08)
(0.19345 0.299801 -1.83216e-08)
(0.261169 0.401982 -2.72489e-08)
(0.316127 0.549023 -2.50677e-08)
(0.336826 0.74143 -7.02109e-09)
(0.304058 0.986699 1.59063e-08)
(0.201145 1.28632 5.61264e-08)
(0.047626 1.66033 9.47537e-08)
(-0.173284 2.11547 1.02738e-07)
(-0.575781 2.59731 9.11517e-08)
(-1.27064 3.01227 9.54118e-08)
(-2.28952 3.2706 9.886e-08)
(-3.57143 3.28198 9.90497e-08)
(-4.97108 2.95286 9.72713e-08)
(-6.33537 2.25511 9.61485e-08)
(-7.53578 1.21075 1.00106e-07)
(-8.44303 -0.105061 1.06195e-07)
(-8.94557 -1.56943 1.16187e-07)
(-8.99832 -3.00624 1.19132e-07)
(0.0372709 0.181939 -1.16663e-08)
(0.125868 0.208589 -1.84232e-08)
(0.215577 0.277106 -2.6858e-08)
(0.297738 0.375713 -3.92484e-08)
(0.37345 0.52067 -3.89834e-08)
(0.422585 0.715354 -1.87331e-08)
(0.428843 0.973979 4.26397e-09)
(0.382779 1.30782 5.96994e-08)
(0.308887 1.74905 9.27434e-08)
(0.168694 2.30757 8.86031e-08)
(-0.193479 2.926 7.87513e-08)
(-0.918917 3.51207 7.6897e-08)
(-2.06814 3.98933 7.77019e-08)
(-3.64947 4.27907 7.71099e-08)
(-5.5659 4.22677 7.57405e-08)
(-7.64697 3.67358 7.69085e-08)
(-9.70133 2.50686 8.09997e-08)
(-11.4802 0.736648 9.4748e-08)
(-12.6529 -1.56903 1.06433e-07)
(-13.0709 -4.04675 1.23688e-07)
(0.0395363 0.165617 -1.06995e-08)
(0.134966 0.189579 -8.82052e-09)
(0.23359 0.255069 -2.28498e-08)
(0.327818 0.348817 -4.1481e-08)
(0.421602 0.48888 -4.58369e-08)
(0.496914 0.680957 -2.61744e-08)
(0.541751 0.94447 -4.2979e-09)
(0.55493 1.29876 5.32698e-08)
(0.56592 1.78397 7.88971e-08)
(0.517709 2.4142 7.0012e-08)
(0.223504 3.13669 5.72467e-08)
(-0.475489 3.87843 5.54752e-08)
(-1.65202 4.59727 4.77415e-08)
(-3.38685 5.2514 4.35927e-08)
(-5.72297 5.70419 4.56966e-08)
(-8.61402 5.64117 5.01678e-08)
(-11.8712 4.70667 6.38496e-08)
(-15.2083 2.6743 8.12796e-08)
(-17.8844 -0.752262 1.11023e-07)
(-19.6294 -4.69056 1.38928e-07)
(0.0412527 0.151001 -2.22277e-08)
(0.142213 0.172208 -2.2808e-08)
(0.248104 0.234443 -3.42507e-08)
(0.352196 0.322729 -5.51372e-08)
(0.461274 0.456208 -6.31306e-08)
(0.559666 0.642362 -4.55013e-08)
(0.64017 0.904078 -3.11651e-08)
(0.70965 1.26659 4.66718e-08)
(0.802298 1.77394 6.42923e-08)
(0.846858 2.44322 5.04875e-08)
(0.637912 3.22932 3.66309e-08)
(0.019527 4.0894 2.87819e-08)
(-1.07404 5.03934 1.59147e-08)
(-2.76199 6.10086 5.43701e-09)
(-5.27479 7.24151 5.90079e-09)
(-8.8523 8.07628 1.4982e-08)
(-13.5078 8.05934 3.27037e-08)
(-19.2819 6.35409 6.04325e-08)
(-24.435 2.03689 1.07446e-07)
(-29.8923 -2.23798 1.52461e-07)
(0.0425342 0.138121 -1.39623e-08)
(0.147954 0.156651 -1.47604e-09)
(0.25973 0.215624 -1.53781e-08)
(0.371768 0.298365 -3.92896e-08)
(0.493536 0.424441 -4.81613e-08)
(0.611664 0.602737 -2.83952e-08)
(0.723664 0.858003 -2.15418e-08)
(0.843535 1.21941 4.51137e-08)
(1.00953 1.73179 5.26499e-08)
(1.14 2.41293 3.3531e-08)
(1.0221 3.22533 1.75287e-08)
(0.521363 4.15871 4.35764e-09)
(-0.397039 5.28981 -1.64495e-08)
(-1.83805 6.72796 -3.26076e-08)
(-4.18736 8.61479 -3.72963e-08)
(-7.99754 10.7768 -3.37445e-08)
(-13.9011 12.9837 -1.42732e-08)
(-22.6901 13.9397 2.18448e-08)
(-29.7226 12.5467 1.00949e-07)
(-43.1615 -11.6299 1.91982e-07)
(0.0434809 0.126758 -2.07954e-08)
(0.15249 0.14272 -1.22468e-08)
(0.269023 0.198479 -1.88789e-08)
(0.387397 0.275907 -3.93749e-08)
(0.519559 0.394235 -4.70695e-08)
(0.654215 0.563697 -2.85991e-08)
(0.793188 0.809468 -2.59908e-08)
(0.956491 1.16335 4.34039e-08)
(1.18547 1.66909 4.31026e-08)
(1.39095 2.34245 2.05242e-08)
(1.36061 3.152 9.97705e-10)
(0.992171 4.11542 -1.6372e-08)
(0.301528 5.35166 -4.45594e-08)
(-0.743507 7.04677 -6.85169e-08)
(-2.51545 9.4962 -8.26392e-08)
(-5.54493 13.0024 -8.97708e-08)
(-11.0141 18.4319 -9.01991e-08)
(-20.3487 26.8787 -7.04597e-08)
(-54.2985 42.7699 -1.15753e-08)
(-124.36 57.615 2.22893e-07)
(-0.0188188 0.0125938 -8.28178e-09)
(-0.0479395 0.0146398 -1.74105e-09)
(-0.0617092 0.0158451 -3.52395e-09)
(-0.0709578 0.0149127 2.62274e-09)
(-0.0821786 0.013365 6.30573e-11)
(-0.0914358 0.0116951 1.39642e-09)
(-0.098192 0.00990284 3.81592e-09)
(-0.103424 0.00809713 1.10401e-08)
(-0.107417 0.00636664 -9.58007e-10)
(-0.110348 0.00475247 -2.40905e-09)
(-0.112454 0.00327518 3.21593e-09)
(-0.113935 0.00194269 -1.7204e-10)
(-0.11494 0.000753291 1.01808e-08)
(-0.115589 -0.000300531 1.41861e-09)
(-0.115978 -0.00122927 1.17879e-08)
(-0.116177 -0.00204471 3.98761e-09)
(-0.116244 -0.00275877 1.18184e-08)
(-0.11622 -0.00338278 7.15465e-09)
(-0.116133 -0.00392736 8.51947e-09)
(-0.115999 -0.00440252 -4.34575e-09)
(-0.0146482 0.0536606 -6.03163e-09)
(-0.0409706 0.0554848 -1.10301e-09)
(-0.0613766 0.0548633 -4.66565e-10)
(-0.0780856 0.0509441 6.00456e-10)
(-0.0925705 0.045794 1.05546e-09)
(-0.10417 0.0401487 1.99457e-09)
(-0.113235 0.0342086 7.03194e-09)
(-0.120237 0.0282725 1.25223e-08)
(-0.125515 0.0225698 9.00986e-09)
(-0.129389 0.0172316 7.20191e-09)
(-0.132157 0.01233 1.6045e-08)
(-0.134071 0.00789509 1.29909e-08)
(-0.135337 0.00392578 2.2445e-08)
(-0.136119 0.000401394 1.25345e-08)
(-0.136547 -0.00270974 1.58137e-08)
(-0.136721 -0.00544482 1.34456e-09)
(-0.136714 -0.00784238 -3.0755e-09)
(-0.136582 -0.00994004 -1.8572e-08)
(-0.136372 -0.0117732 -2.63469e-08)
(-0.136116 -0.0133744 -3.30843e-08)
(-0.0150326 0.105473 -5.1424e-09)
(-0.0449612 0.104032 -1.45894e-09)
(-0.0716987 0.100057 -2.97133e-10)
(-0.094028 0.0935529 1.4314e-10)
(-0.113394 0.0852848 9.02641e-10)
(-0.12955 0.0757693 1.63585e-09)
(-0.142651 0.0655167 6.02759e-09)
(-0.152995 0.0550295 1.05202e-08)
(-0.160926 0.0447187 9.27467e-09)
(-0.166828 0.0348839 6.06132e-09)
(-0.171076 0.0257194 1.08472e-08)
(-0.17401 0.0173313 3.66861e-09)
(-0.175931 0.00975776 3.95175e-09)
(-0.177087 0.00298949 -1.15927e-08)
(-0.177681 -0.00301308 -1.6986e-08)
(-0.177872 -0.00830873 -3.19199e-08)
(-0.177782 -0.0129615 -3.22567e-08)
(-0.177506 -0.017038 -3.49422e-08)
(-0.17712 -0.0206037 -3.05736e-08)
(-0.176639 -0.0237193 -1.91535e-08)
(-0.0168303 0.153006 -5.89291e-09)
(-0.0503642 0.151701 -2.57428e-09)
(-0.0820277 0.148379 -1.25664e-09)
(-0.110911 0.142001 -1.28317e-09)
(-0.137295 0.132642 -6.41861e-10)
(-0.160539 0.12067 -1.70418e-10)
(-0.180354 0.106727 3.57752e-09)
(-0.196684 0.0915876 7.316e-09)
(-0.209673 0.0760021 5.99633e-09)
(-0.21964 0.0606031 1.61892e-09)
(-0.227005 0.0458643 3.01519e-09)
(-0.232218 0.0320993 -6.58541e-09)
(-0.235711 0.0194825 -1.04319e-08)
(-0.237871 0.008083 -2.68042e-08)
(-0.239043 -0.00210905 -3.13784e-08)
(-0.239492 -0.0111533 -4.21242e-08)
(-0.239411 -0.01913 -3.99448e-08)
(-0.238981 -0.0261361 -4.29343e-08)
(-0.238339 -0.0322728 -4.04694e-08)
(-0.237521 -0.0376387 -3.25313e-08)
(-0.0169371 0.198399 -3.15901e-09)
(-0.0521451 0.199607 1.02299e-09)
(-0.0883525 0.199804 3.2168e-09)
(-0.124253 0.196735 2.54978e-09)
(-0.159548 0.189343 2.74857e-09)
(-0.192929 0.177308 2.83104e-09)
(-0.223212 0.161074 6.28656e-09)
(-0.249533 0.141605 9.64224e-09)
(-0.271462 0.120084 7.07281e-09)
(-0.288995 0.0976719 6.10749e-10)
(-0.302441 0.0753574 -9.14382e-10)
(-0.312309 0.0538951 -1.42887e-08)
(-0.319185 0.0337902 -2.11601e-08)
(-0.323673 0.0153404 -4.00294e-08)
(-0.326352 -0.00134744 -4.45774e-08)
(-0.327651 -0.0162676 -5.52661e-08)
(-0.327915 -0.0294903 -5.17669e-08)
(-0.327485 -0.0411379 -5.4693e-08)
(-0.326615 -0.051355 -5.23935e-08)
(-0.325396 -0.0602921 -4.48696e-08)
(-0.0155595 0.236653 -9.55696e-09)
(-0.0491056 0.241814 -5.17458e-10)
(-0.0869776 0.249147 2.48827e-09)
(-0.128787 0.254029 2.56446e-09)
(-0.173843 0.253627 2.85489e-09)
(-0.220123 0.246162 2.29173e-09)
(-0.265219 0.231211 4.74721e-09)
(-0.306914 0.2095 7.49206e-09)
(-0.343594 0.182515 5.02242e-09)
(-0.374383 0.152035 -1.45293e-09)
(-0.399056 0.119833 -4.37913e-09)
(-0.417926 0.0874797 -1.93364e-08)
(-0.431616 0.0562058 -2.84932e-08)
(-0.44102 0.0268804 -4.88655e-08)
(-0.44703 -2.65909e-05 -5.39213e-08)
(-0.45031 -0.0242605 -6.55657e-08)
(-0.451544 -0.0458063 -6.22287e-08)
(-0.451362 -0.064794 -6.57976e-08)
(-0.450238 -0.0814272 -6.45766e-08)
(-0.448356 -0.0959415 -5.48112e-08)
(-0.0120567 0.265074 3.57218e-09)
(-0.0394513 0.275836 6.10781e-10)
(-0.0748453 0.293718 1.5269e-10)
(-0.119734 0.31151 3.22917e-09)
(-0.173607 0.324349 6.00912e-09)
(-0.234344 0.32818 6.71491e-09)
(-0.298407 0.320675 9.9631e-09)
(-0.361861 0.301405 1.36507e-08)
(-0.421275 0.271479 1.18503e-08)
(-0.474122 0.232849 5.72035e-09)
(-0.518748 0.188157 1.01838e-09)
(-0.554438 0.140479 -1.59414e-08)
(-0.58129 0.0926935 -2.98097e-08)
(-0.600301 0.0468648 -5.30444e-08)
(-0.612619 0.00432767 -6.21708e-08)
(-0.619364 -0.0342569 -7.61037e-08)
(-0.62202 -0.0687433 -7.61881e-08)
(-0.621847 -0.0992543 -7.92942e-08)
(-0.619799 -0.126056 -8.01671e-08)
(-0.616283 -0.149483 -6.22361e-08)
(-0.00674858 0.281912 4.04702e-10)
(-0.0236886 0.298863 -1.41415e-09)
(-0.0517015 0.329342 5.05321e-10)
(-0.0950467 0.363951 4.87697e-09)
(-0.154231 0.396243 8.21728e-09)
(-0.228368 0.419443 1.09033e-08)
(-0.313675 0.428205 1.67478e-08)
(-0.40487 0.419613 2.35341e-08)
(-0.496834 0.392685 2.4569e-08)
(-0.58467 0.347868 1.98621e-08)
(-0.663008 0.288793 1.36398e-08)
(-0.727404 0.221511 -6.35257e-09)
(-0.776413 0.151261 -2.34325e-08)
(-0.811123 0.0817375 -4.75874e-08)
(-0.833617 0.0155314 -5.63688e-08)
(-0.846644 -0.0458835 -6.89509e-08)
(-0.852859 -0.101708 -6.62327e-08)
(-0.854233 -0.151643 -6.49158e-08)
(-0.852252 -0.195773 -6.3243e-08)
(-0.847569 -0.234423 -3.57303e-08)
(-0.000164048 0.287483 5.89129e-09)
(-0.00326333 0.310342 3.36969e-09)
(-0.0192526 0.353735 5.81217e-09)
(-0.0553963 0.406952 8.20494e-09)
(-0.113895 0.463257 1.07436e-08)
(-0.196883 0.51348 1.58163e-08)
(-0.30198 0.548733 2.49456e-08)
(-0.424442 0.562315 3.52899e-08)
(-0.559583 0.548183 3.92866e-08)
(-0.698638 0.502908 3.30753e-08)
(-0.827105 0.431942 2.17516e-08)
(-0.934852 0.344173 4.60515e-10)
(-1.02018 0.246395 -1.52108e-08)
(-1.08444 0.14453 -3.29577e-08)
(-1.12999 0.0434221 -3.87881e-08)
(-1.15981 -0.0531387 -4.67087e-08)
(-1.17665 -0.142506 -4.07482e-08)
(-1.18331 -0.223207 -3.45648e-08)
(-1.18237 -0.294743 -3.04948e-08)
(-1.17521 -0.357261 2.25173e-09)
(0.00696201 0.283444 2.25838e-09)
(0.0196078 0.311057 4.27179e-09)
(0.0191046 0.36586 9.68417e-09)
(-0.0043578 0.43682 1.36863e-08)
(-0.0548149 0.518604 1.9083e-08)
(-0.13897 0.600743 2.79171e-08)
(-0.257789 0.671545 3.90794e-08)
(-0.410859 0.719814 5.10748e-08)
(-0.597207 0.732052 5.28298e-08)
(-0.800635 0.700202 4.11705e-08)
(-0.994675 0.631407 2.54571e-08)
(-1.16597 0.533286 5.11979e-09)
(-1.31126 0.41153 -5.96786e-09)
(-1.42824 0.273059 -1.7684e-08)
(-1.51635 0.126229 -1.79448e-08)
(-1.57676 -0.0206407 -1.8345e-08)
(-1.61261 -0.160878 -5.94487e-09)
(-1.62829 -0.290001 6.6438e-09)
(-1.6283 -0.405618 1.69176e-08)
(-1.61523 -0.506916 5.30682e-08)
(0.0139719 0.272227 -9.13171e-09)
(0.0427736 0.30299 1.1827e-10)
(0.0596069 0.366521 9.90829e-09)
(0.0530204 0.452207 1.67877e-08)
(0.0175901 0.55756 2.64779e-08)
(-0.0585265 0.672455 3.90767e-08)
(-0.181225 0.784217 5.05415e-08)
(-0.35811 0.877074 5.82489e-08)
(-0.593519 0.932201 5.90926e-08)
(-0.861703 0.943369 3.44614e-08)
(-1.12799 0.911704 1.93905e-08)
(-1.38146 0.832535 3.81949e-09)
(-1.61762 0.702964 -1.61115e-09)
(-1.826 0.527942 -7.61366e-09)
(-1.99549 0.320504 -3.38358e-09)
(-2.12017 0.0973146 9.7578e-10)
(-2.20035 -0.12625 1.48714e-08)
(-2.24093 -0.33836 3.04206e-08)
(-2.24888 -0.531362 4.15809e-08)
(-2.229 -0.70138 7.67466e-08)
(0.0203906 0.256331 -1.75568e-08)
(0.0645753 0.288557 -2.27412e-09)
(0.0990236 0.357722 1.29336e-08)
(0.111619 0.453812 2.30954e-08)
(0.0965014 0.578271 3.74863e-08)
(0.0371274 0.722687 5.24417e-08)
(-0.0784946 0.876018 6.19712e-08)
(-0.266177 1.01998 6.4797e-08)
(-0.52874 1.13719 4.36853e-08)
(-0.838171 1.23164 3.02584e-08)
(-1.17287 1.2873 9.80175e-09)
(-1.53367 1.26955 9.07456e-09)
(-1.91135 1.15748 1.62136e-09)
(-2.27717 0.949604 -4.79704e-09)
(-2.5973 0.66276 -9.21291e-09)
(-2.84794 0.325756 -7.75567e-09)
(-3.01992 -0.0314287 3.28686e-09)
(-3.11544 -0.382877 4.44169e-09)
(-3.14402 -0.70931 1.83512e-08)
(-3.11412 -0.999036 4.01774e-08)
(0.0259587 0.237921 4.98297e-09)
(0.0840179 0.270131 1.65717e-08)
(0.135116 0.342034 3.70804e-08)
(0.167375 0.443912 4.9319e-08)
(0.175504 0.581701 6.58771e-08)
(0.139548 0.749453 8.28464e-08)
(0.0423029 0.940731 8.81566e-08)
(-0.137023 1.13972 7.81824e-08)
(-0.392504 1.33771 5.77811e-08)
(-0.705165 1.54509 1.76983e-08)
(-1.09558 1.72907 2.61636e-08)
(-1.58713 1.82312 1.61025e-08)
(-2.16137 1.77332 1.75605e-09)
(-2.76591 1.55662 -1.72508e-08)
(-3.3322 1.18742 -3.08547e-08)
(-3.80393 0.704172 -3.25563e-08)
(-4.14972 0.153637 -4.59297e-08)
(-4.35849 -0.416669 -3.05048e-08)
(-4.43666 -0.964527 -3.43587e-08)
(-4.39531 -1.45888 6.44745e-10)
(0.0305939 0.218675 -8.91324e-09)
(0.100681 0.249722 9.53467e-09)
(0.166702 0.322 3.77292e-08)
(0.21765 0.425598 5.34637e-08)
(0.249704 0.570667 7.42012e-08)
(0.241285 0.754397 9.4238e-08)
(0.172686 0.976989 9.73164e-08)
(0.0228398 1.23003 8.35249e-08)
(-0.19414 1.51863 4.35339e-08)
(-0.474608 1.85094 4.7811e-08)
(-0.88801 2.18229 2.60803e-08)
(-1.50176 2.42891 1.25101e-08)
(-2.31009 2.50565 -2.18872e-08)
(-3.23445 2.34852 -6.17492e-08)
(-4.16064 1.93917 -8.48217e-08)
(-4.98968 1.30874 -1.00263e-07)
(-5.64969 0.511887 -9.45664e-08)
(-6.09075 -0.380748 -9.30182e-08)
(-6.29274 -1.28839 -7.62937e-08)
(-6.25765 -2.13394 -5.57387e-08)
(0.0343315 0.199766 1.16561e-08)
(0.114554 0.228857 2.62676e-08)
(0.19345 0.299801 5.89454e-08)
(0.261169 0.401982 7.40727e-08)
(0.316127 0.549023 9.32959e-08)
(0.336826 0.74143 1.10982e-07)
(0.304058 0.986699 1.07828e-07)
(0.201145 1.28632 9.14945e-08)
(0.047626 1.66033 6.10212e-08)
(-0.173284 2.11547 2.67327e-08)
(-0.575781 2.59731 3.47961e-08)
(-1.27064 3.01227 -1.39685e-08)
(-2.28952 3.2706 -7.70942e-08)
(-3.57143 3.28198 -1.22578e-07)
(-4.97108 2.95286 -1.57245e-07)
(-6.33537 2.25511 -1.77527e-07)
(-7.53578 1.21075 -1.91264e-07)
(-8.44303 -0.105062 -1.76452e-07)
(-8.94557 -1.56943 -1.65968e-07)
(-8.99832 -3.00624 -1.37333e-07)
(0.0372709 0.181939 7.21649e-09)
(0.125868 0.208589 3.45507e-08)
(0.215578 0.277106 7.38157e-08)
(0.297738 0.375713 8.88743e-08)
(0.37345 0.52067 1.07313e-07)
(0.422585 0.715354 1.25155e-07)
(0.428843 0.973979 1.1685e-07)
(0.382779 1.30782 8.4931e-08)
(0.308887 1.74905 3.83387e-08)
(0.168694 2.30757 3.3655e-08)
(-0.193479 2.926 7.12456e-09)
(-0.918917 3.51207 -3.67399e-08)
(-2.06814 3.98933 -1.1497e-07)
(-3.64947 4.27907 -1.90692e-07)
(-5.5659 4.22677 -2.26679e-07)
(-7.64697 3.67358 -2.53275e-07)
(-9.70133 2.50686 -2.66529e-07)
(-11.4802 0.736648 -2.70497e-07)
(-12.6529 -1.56903 -2.54907e-07)
(-13.0709 -4.04675 -2.36577e-07)
(0.0395363 0.165617 -1.49728e-08)
(0.134966 0.189579 2.74314e-08)
(0.23359 0.255069 7.65209e-08)
(0.327818 0.348817 9.73393e-08)
(0.421602 0.48888 1.20823e-07)
(0.496914 0.680957 1.39931e-07)
(0.54175 0.94447 1.31356e-07)
(0.55493 1.29876 1.00049e-07)
(0.56592 1.78397 4.6801e-08)
(0.517709 2.4142 1.86918e-08)
(0.223504 3.13669 -1.71303e-08)
(-0.475489 3.87843 -8.48084e-08)
(-1.65202 4.59727 -1.56748e-07)
(-3.38685 5.2514 -2.18148e-07)
(-5.72297 5.70419 -3.14906e-07)
(-8.61402 5.64117 -3.31767e-07)
(-11.8712 4.70667 -3.56247e-07)
(-15.2083 2.6743 -3.58196e-07)
(-17.8844 -0.752263 -3.39351e-07)
(-19.6294 -4.69056 -3.16881e-07)
(0.0412528 0.151001 2.25333e-08)
(0.142213 0.172208 5.733e-08)
(0.248104 0.234443 9.4695e-08)
(0.352196 0.322729 9.55213e-08)
(0.461274 0.456208 9.84246e-08)
(0.559666 0.642362 1.04847e-07)
(0.64017 0.904077 8.86041e-08)
(0.70965 1.26659 9.64861e-08)
(0.802298 1.77393 3.47035e-08)
(0.846858 2.44322 2.11658e-08)
(0.637912 3.22932 -3.74878e-08)
(0.0195268 4.0894 -1.32186e-07)
(-1.07404 5.03934 -1.87245e-07)
(-2.76199 6.10086 -2.64893e-07)
(-5.27479 7.24151 -3.08824e-07)
(-8.8523 8.07628 -3.74628e-07)
(-13.5078 8.05934 -3.99249e-07)
(-19.2819 6.35409 -4.04302e-07)
(-24.435 2.03689 -3.95672e-07)
(-29.8923 -2.23798 -3.44885e-07)
(0.0425343 0.138121 -4.39476e-08)
(0.147954 0.156651 -2.21311e-08)
(0.25973 0.215624 3.30414e-10)
(0.371768 0.298365 -1.31412e-08)
(0.493536 0.424441 -2.20266e-08)
(0.611664 0.602737 -2.76595e-08)
(0.723664 0.858003 -6.66091e-08)
(0.843535 1.21941 4.67311e-08)
(1.00953 1.73179 -4.39877e-09)
(1.13999 2.41293 -2.38633e-08)
(1.0221 3.22533 -9.30092e-08)
(0.521363 4.15871 -1.51359e-07)
(-0.397039 5.28981 -1.9248e-07)
(-1.83805 6.72796 -2.27771e-07)
(-4.18736 8.61479 -2.96713e-07)
(-7.99754 10.7768 -3.35748e-07)
(-13.9011 12.9837 -3.96925e-07)
(-22.6901 13.9397 -4.31419e-07)
(-29.7226 12.5467 -4.28263e-07)
(-43.1615 -11.6299 -4.43353e-07)
(0.0434809 0.126758 1.32106e-08)
(0.15249 0.142719 4.05217e-08)
(0.269023 0.198478 6.45203e-08)
(0.387397 0.275906 4.86691e-08)
(0.519559 0.394235 3.45314e-08)
(0.654215 0.563697 1.63483e-08)
(0.793188 0.809468 -3.94241e-08)
(0.956491 1.16335 9.98306e-09)
(1.18547 1.66909 -3.90321e-08)
(1.39095 2.34245 -4.60912e-08)
(1.36061 3.152 -1.00671e-07)
(0.992171 4.11542 -1.95383e-07)
(0.301528 5.35166 -2.09346e-07)
(-0.743507 7.04677 -2.26689e-07)
(-2.51545 9.4962 -2.36358e-07)
(-5.54493 13.0024 -2.94768e-07)
(-11.0141 18.4319 -3.37709e-07)
(-20.3487 26.8787 -3.45991e-07)
(-54.2985 42.7699 -3.25901e-07)
(-124.36 57.615 -5.25454e-07)
(-0.0188188 0.0125938 -6.01086e-09)
(-0.0479395 0.0146398 4.51455e-10)
(-0.0617092 0.0158451 -1.2238e-09)
(-0.0709578 0.0149127 2.60898e-09)
(-0.0821786 0.013365 1.13413e-09)
(-0.0914358 0.0116951 7.7771e-10)
(-0.098192 0.00990284 -3.1806e-11)
(-0.103424 0.00809713 -5.209e-11)
(-0.107417 0.00636664 -3.23526e-09)
(-0.110348 0.00475247 -2.22855e-09)
(-0.112454 0.00327518 -1.10888e-10)
(-0.113935 0.00194269 -6.69604e-10)
(-0.11494 0.000753292 6.36701e-10)
(-0.115589 -0.00030053 -1.24974e-10)
(-0.115978 -0.00122927 1.44336e-09)
(-0.116177 -0.00204471 1.95625e-09)
(-0.116244 -0.00275876 3.32169e-09)
(-0.11622 -0.00338278 4.63918e-09)
(-0.116133 -0.00392736 5.98004e-09)
(-0.115999 -0.00440251 7.88748e-09)
(-0.0146482 0.0536606 -4.18659e-09)
(-0.0409706 0.0554848 5.35527e-10)
(-0.0613766 0.0548633 8.40801e-10)
(-0.0780856 0.0509441 1.80853e-09)
(-0.0925705 0.045794 2.32674e-09)
(-0.10417 0.0401487 2.78752e-09)
(-0.113235 0.0342086 3.5125e-09)
(-0.120237 0.0282725 4.23513e-09)
(-0.125515 0.0225698 3.0466e-09)
(-0.129389 0.0172316 3.65789e-09)
(-0.132157 0.01233 5.99466e-09)
(-0.134071 0.00789509 5.61924e-09)
(-0.135337 0.00392578 6.61622e-09)
(-0.136119 0.000401395 6.02192e-09)
(-0.136547 -0.00270974 7.14365e-09)
(-0.136721 -0.00544481 8.14317e-09)
(-0.136714 -0.00784238 9.82991e-09)
(-0.136582 -0.00994004 1.21868e-08)
(-0.136372 -0.0117731 1.43627e-08)
(-0.136116 -0.0133744 1.7633e-08)
(-0.0150326 0.105473 -2.48633e-09)
(-0.0449612 0.104032 1.11901e-09)
(-0.0716987 0.100057 1.92448e-09)
(-0.094028 0.0935529 2.64996e-09)
(-0.113394 0.0852848 3.38129e-09)
(-0.12955 0.0757693 3.82477e-09)
(-0.142651 0.0655167 4.48678e-09)
(-0.152995 0.0550295 4.59407e-09)
(-0.160926 0.0447188 3.0476e-09)
(-0.166828 0.0348839 1.81816e-09)
(-0.171076 0.0257194 1.84682e-09)
(-0.17401 0.0173313 -1.14627e-10)
(-0.175931 0.00975776 -9.2337e-10)
(-0.177087 0.00298949 -1.65596e-09)
(-0.177681 -0.00301308 -4.20348e-10)
(-0.177872 -0.00830873 2.722e-09)
(-0.177782 -0.0129615 6.24896e-09)
(-0.177506 -0.017038 1.08847e-08)
(-0.17712 -0.0206037 1.30522e-08)
(-0.176639 -0.0237193 1.68646e-08)
(-0.0168303 0.153006 -2.41454e-09)
(-0.0503642 0.151701 6.17832e-10)
(-0.0820277 0.148379 1.70437e-09)
(-0.110911 0.142001 2.4349e-09)
(-0.137295 0.132642 3.51042e-09)
(-0.160539 0.12067 4.23381e-09)
(-0.180354 0.106727 5.07549e-09)
(-0.196684 0.0915876 5.14838e-09)
(-0.209673 0.0760021 3.31402e-09)
(-0.21964 0.0606031 1.18242e-09)
(-0.227005 0.0458643 6.8766e-12)
(-0.232218 0.0320993 -2.99014e-09)
(-0.235711 0.0194825 -4.46254e-09)
(-0.237871 0.008083 -5.76529e-09)
(-0.239043 -0.00210905 -4.35669e-09)
(-0.239491 -0.0111533 -2.5451e-09)
(-0.239411 -0.01913 -2.84912e-10)
(-0.238981 -0.0261361 1.07245e-09)