/*--------------------------------*- C++ -*----------------------------------*\
| =========                 |                                                 |
| \\      /  F ield         | OpenFOAM: The Open Source CFD Toolbox           |
|  \\    /   O peration     | Version:  4.x                                   |
|   \\  /    A nd           | Web:      www.OpenFOAM.org                      |
|    \\/     M anipulation  |                                                 |
\*---------------------------------------------------------------------------*/
FoamFile
{
    version     2.0;
    format      ascii;
    class       volVectorField;
    location    "60";
    object      U;
}
// * * * * * * * * * * * * * * * * * * * * * * * * * * * * * * * * * * * * * //

dimensions      [0 1 -1 0 0 0 0];

internalField   nonuniform List<vector> 
112000
(
(0.999849 -0.000421959 -4.04261e-11)
(1.0006 -0.000872707 4.25868e-11)
(1.00215 -0.00150566 -9.04228e-11)
(1.00391 -0.00211906 -2.65069e-11)
(1.00584 -0.00262012 -4.01545e-11)
(1.00786 -0.00302268 -1.22326e-10)
(1.00982 -0.00333735 -2.43798e-11)
(1.01168 -0.00357679 -8.74161e-11)
(1.01339 -0.00375477 1.9727e-11)
(1.01496 -0.00388389 -1.11604e-10)
(1.01637 -0.00397497 2.56677e-11)
(1.01763 -0.004037 -4.70152e-11)
(1.01875 -0.00407722 2.62222e-11)
(1.01974 -0.00410134 3.57837e-11)
(1.02062 -0.00411379 8.75389e-11)
(1.02139 -0.00411793 1.49825e-10)
(1.02206 -0.00411631 2.14968e-10)
(1.02266 -0.00411084 3.04928e-10)
(1.02318 -0.00410291 3.82015e-10)
(1.02363 -0.00409356 4.84628e-10)
(0.99999 -0.00139027 -1.8308e-11)
(1.00146 -0.00417085 5.28769e-12)
(1.00373 -0.00671957 -4.32256e-11)
(1.00639 -0.00887175 -3.76792e-11)
(1.00926 -0.0106248 -8.58923e-11)
(1.01216 -0.0120247 -1.35248e-10)
(1.01496 -0.0131172 -1.36296e-10)
(1.0176 -0.0139513 -1.75529e-10)
(1.02004 -0.0145753 -2.06486e-10)
(1.02225 -0.0150324 -2.9835e-10)
(1.02425 -0.0153593 -3.14103e-10)
(1.02603 -0.0155866 -4.16679e-10)
(1.02761 -0.0157387 -4.73035e-10)
(1.02901 -0.015835 -5.65015e-10)
(1.03024 -0.0158905 -6.45343e-10)
(1.03133 -0.0159167 -7.34004e-10)
(1.03228 -0.0159223 -8.23286e-10)
(1.03312 -0.0159138 -9.11475e-10)
(1.03385 -0.015896 -9.9638e-10)
(1.03449 -0.0158724 -1.07767e-09)
(0.999979 -0.00278593 -2.68036e-11)
(1.00155 -0.00804938 -3.24966e-11)
(1.0042 -0.0126034 -6.50071e-11)
(1.00743 -0.0164316 -6.88205e-11)
(1.01096 -0.0195754 -9.899e-11)
(1.01458 -0.0220995 -1.28931e-10)
(1.01814 -0.0240804 -1.30935e-10)
(1.02152 -0.0256007 -1.53678e-10)
(1.02467 -0.0267416 -1.7874e-10)
(1.02755 -0.0275776 -2.33587e-10)
(1.03016 -0.0281739 -2.58714e-10)
(1.03249 -0.0285854 -3.35853e-10)
(1.03457 -0.0288572 -3.97706e-10)
(1.03641 -0.029025 -4.87851e-10)
(1.03804 -0.029117 -5.76403e-10)
(1.03947 -0.0291545 -6.7895e-10)
(1.04073 -0.0291541 -7.84135e-10)
(1.04183 -0.0291278 -8.88074e-10)
(1.04279 -0.0290848 -9.82582e-10)
(1.04364 -0.0290317 -1.06278e-09)
(1 -0.00404019 -1.43104e-11)
(1.0018 -0.0116356 -1.05653e-11)
(1.00481 -0.0182668 -3.16177e-11)
(1.00858 -0.0239445 -3.76557e-11)
(1.01282 -0.0287038 -6.50972e-11)
(1.01727 -0.0326016 -9.38905e-11)
(1.02172 -0.0357173 -1.00188e-10)
(1.02604 -0.0381471 -1.1839e-10)
(1.03011 -0.0399948 -1.37893e-10)
(1.03389 -0.0413634 -1.77594e-10)
(1.03733 -0.0423478 -1.99743e-10)
(1.04044 -0.0430315 -2.62414e-10)
(1.04321 -0.0434849 -3.17168e-10)
(1.04568 -0.0437655 -3.95782e-10)
(1.04786 -0.043919 -4.76323e-10)
(1.04979 -0.0439811 -5.61525e-10)
(1.05148 -0.0439789 -6.31002e-10)
(1.05296 -0.0439331 -6.85031e-10)
(1.05426 -0.0438591 -7.20868e-10)
(1.0554 -0.0437681 -7.39941e-10)
(1.00002 -0.00521581 -5.25848e-11)
(1.00187 -0.0150824 -2.19928e-11)
(1.00506 -0.0238391 -1.46449e-11)
(1.00921 -0.0315265 1.05566e-11)
(1.01404 -0.0381546 1.32748e-11)
(1.01927 -0.0437377 9.59958e-12)
(1.02468 -0.0483192 2.19653e-11)
(1.03006 -0.0519772 1.69122e-11)
(1.03525 -0.0548168 3.99478e-12)
(1.04014 -0.0569573 -2.91728e-11)
(1.04467 -0.0585205 -5.38448e-11)
(1.0488 -0.0596207 -1.24916e-10)
(1.05253 -0.0603596 -1.9732e-10)
(1.05586 -0.0608235 -3.02393e-10)
(1.05882 -0.0610826 -4.11787e-10)
(1.06144 -0.061193 -5.21993e-10)
(1.06374 -0.0611984 -6.11724e-10)
(1.06576 -0.0611321 -6.81621e-10)
(1.06754 -0.0610188 -7.29898e-10)
(1.06909 -0.0608771 -7.58528e-10)
(1.00003 -0.00619904 2.65755e-11)
(1.00174 -0.0179939 7.56269e-11)
(1.00478 -0.0287157 7.32089e-11)
(1.00893 -0.0384404 1.0888e-10)
(1.014 -0.0471352 1.2897e-10)
(1.01976 -0.0547335 1.42029e-10)
(1.02598 -0.061192 1.63627e-10)
(1.03239 -0.0665194 1.68862e-10)
(1.03879 -0.0707799 1.62532e-10)
(1.04499 -0.0740803 1.31765e-10)
(1.05084 -0.0765525 9.77496e-11)
(1.05628 -0.0783373 1.29233e-11)
(1.06125 -0.0795703 -8.187e-11)
(1.06574 -0.0803736 -2.15601e-10)
(1.06976 -0.0808508 -3.53997e-10)
(1.07334 -0.0810873 -4.90224e-10)
(1.0765 -0.0811509 -6.02737e-10)
(1.07928 -0.081094 -6.92644e-10)
(1.08172 -0.0809565 -7.58416e-10)
(1.08387 -0.0807682 -8.01631e-10)
(1.00002 -0.00691494 -1.21104e-11)
(1.00134 -0.02017 6.60556e-11)
(1.00381 -0.0325562 1.3982e-10)
(1.00744 -0.0442084 2.28948e-10)
(1.01221 -0.0550671 2.8063e-10)
(1.01802 -0.0649699 3.1633e-10)
(1.02468 -0.073746 3.49615e-10)
(1.03192 -0.0812781 3.60452e-10)
(1.03946 -0.0875337 3.47257e-10)
(1.04705 -0.0925584 2.99896e-10)
(1.05446 -0.0964588 2.28742e-10)
(1.06153 -0.0993808 9.45469e-11)
(1.06813 -0.101485 -6.5475e-11)
(1.07418 -0.102925 -2.74231e-10)
(1.07965 -0.103843 -4.94431e-10)
(1.08454 -0.104362 -7.11749e-10)
(1.08887 -0.104582 -9.05545e-10)
(1.09268 -0.104588 -1.07678e-09)
(1.09603 -0.104444 -1.2222e-09)
(1.09895 -0.104202 -1.33944e-09)
(1.00002 -0.00732477 4.18281e-11)
(1.00073 -0.0214647 1.93296e-10)
(1.0022 -0.0350641 3.11298e-10)
(1.00476 -0.0483503 4.30183e-10)
(1.00859 -0.0612833 5.00086e-10)
(1.01378 -0.0736335 5.57662e-10)
(1.02027 -0.0850931 5.98436e-10)
(1.02786 -0.0953825 6.09403e-10)
(1.03628 -0.104331 5.71819e-10)
(1.04524 -0.111865 4.58881e-10)
(1.0544 -0.117993 2.68951e-10)
(1.06345 -0.122786 -1.58144e-11)
(1.07208 -0.126357 -3.49728e-10)
(1.08009 -0.128857 -7.29372e-10)
(1.08737 -0.130467 -1.10826e-09)
(1.09387 -0.131374 -1.47094e-09)
(1.09961 -0.13175 -1.80075e-09)
(1.10465 -0.131742 -2.09829e-09)
(1.10904 -0.131472 -2.35975e-09)
(1.11286 -0.131031 -2.57874e-09)
(1.00001 -0.0074428 8.68425e-11)
(0.999959 -0.0218945 3.36003e-10)
(1.00013 -0.036193 5.14879e-10)
(1.00115 -0.0506791 7.00393e-10)
(1.00339 -0.0653978 8.25802e-10)
(1.0072 -0.0801241 9.21743e-10)
(1.01275 -0.0944482 9.5709e-10)
(1.01997 -0.107961 9.41189e-10)
(1.02876 -0.120389 8.06887e-10)
(1.03886 -0.131458 4.75986e-10)
(1.04978 -0.14085 -2.10186e-11)
(1.06088 -0.148334 -6.30595e-10)
(1.07165 -0.153884 -1.27265e-09)
(1.08172 -0.157681 -1.91302e-09)
(1.09091 -0.160024 -2.51032e-09)
(1.09915 -0.161235 -3.05759e-09)
(1.10643 -0.161614 -3.54854e-09)
(1.11282 -0.161409 -3.98605e-09)
(1.11838 -0.160815 -4.3694e-09)
(1.12321 -0.159982 -4.69029e-09)
(0.999996 -0.00731872 5.46081e-11)
(0.999126 -0.0215811 4.4673e-10)
(0.997835 -0.0360739 7.37189e-10)
(0.996985 -0.0512461 1.04063e-09)
(0.997126 -0.0672938 1.25856e-09)
(0.998875 -0.0840811 1.40769e-09)
(1.00262 -0.101175 1.41617e-09)
(1.00859 -0.1182 1.3305e-09)
(1.017 -0.134864 9.22006e-10)
(1.0276 -0.150397 1.14589e-10)
(1.03964 -0.163785 -8.87859e-10)
(1.05228 -0.174448 -1.92605e-09)
(1.06486 -0.182339 -2.89985e-09)
(1.07693 -0.187744 -3.78573e-09)
(1.08819 -0.191088 -4.57052e-09)
(1.09847 -0.192822 -5.26457e-09)
(1.1077 -0.193361 -5.87462e-09)
(1.11587 -0.193055 -6.41049e-09)
(1.12305 -0.192183 -6.87704e-09)
(1.1293 -0.190959 -7.26748e-09)
(0.999991 -0.00701756 5.95746e-11)
(0.998308 -0.0207081 5.92506e-10)
(0.995525 -0.034965 1.02029e-09)
(0.992684 -0.0503153 1.46885e-09)
(0.990424 -0.0671508 1.8141e-09)
(0.989584 -0.0854863 1.99646e-09)
(0.990757 -0.104989 1.94289e-09)
(0.994561 -0.125533 1.65203e-09)
(1.00151 -0.146715 7.24271e-10)
(1.01134 -0.166979 -7.10044e-10)
(1.02332 -0.184706 -2.19059e-09)
(1.03668 -0.199204 -3.53221e-09)
(1.05077 -0.210374 -4.69567e-09)
(1.065 -0.218433 -5.69792e-09)
(1.07887 -0.22377 -6.55886e-09)
(1.09196 -0.226863 -7.30341e-09)
(1.10402 -0.228201 -7.94682e-09)
(1.1149 -0.228238 -8.50445e-09)
(1.12457 -0.227361 -8.98465e-09)
(1.13306 -0.225885 -9.38303e-09)
(0.999991 -0.00660498 4.24316e-11)
(0.997559 -0.0194679 7.51548e-10)
(0.993366 -0.0331649 1.36411e-09)
(0.988572 -0.0482579 2.00271e-09)
(0.983829 -0.0653433 2.52832e-09)
(0.980111 -0.0846115 2.72708e-09)
(0.978161 -0.105951 2.55214e-09)
(0.978942 -0.129589 1.86697e-09)
(0.98316 -0.154898 2.57554e-10)
(0.990765 -0.179695 -1.6947e-09)
(1.00139 -0.202209 -3.46025e-09)
(1.01461 -0.221657 -4.92586e-09)
(1.02988 -0.237632 -6.13805e-09)
(1.04646 -0.250012 -7.1491e-09)
(1.06358 -0.258928 -7.99957e-09)
(1.08048 -0.264739 -8.71478e-09)
(1.09657 -0.267929 -9.32544e-09)
(1.11143 -0.269027 -9.83845e-09)
(1.12481 -0.268553 -1.02657e-08)
(1.13664 -0.266976 -1.06092e-08)
(0.999996 -0.00613577 1.12029e-10)
(0.996906 -0.0180292 9.76511e-10)
(0.991453 -0.0309535 1.78252e-09)
(0.984859 -0.0454631 2.62163e-09)
(0.977736 -0.0623309 3.34565e-09)
(0.971082 -0.0819231 3.52514e-09)
(0.965726 -0.104407 3.1551e-09)
(0.962823 -0.130345 1.92667e-09)
(0.963205 -0.15898 -2.65985e-10)
(0.967324 -0.18795 -2.53107e-09)
(0.975306 -0.215599 -4.34833e-09)
(0.987246 -0.241042 -5.79276e-09)
(1.00289 -0.263447 -6.93457e-09)
(1.02153 -0.282132 -7.83277e-09)
(1.04215 -0.296709 -8.5236e-09)
(1.06364 -0.307171 -9.05242e-09)
(1.08494 -0.313786 -9.4459e-09)
(1.10517 -0.317025 -9.73955e-09)
(1.12368 -0.317501 -9.948e-09)
(1.14009 -0.315897 -1.00875e-08)
(1 -0.00565067 9.80023e-11)
(0.996355 -0.0165222 1.1403e-09)
(0.989819 -0.0285593 2.15423e-09)
(0.981647 -0.0422739 3.19682e-09)
(0.972369 -0.0585684 4.13323e-09)
(0.962914 -0.0779557 4.26024e-09)
(0.954128 -0.100878 3.68358e-09)
(0.947181 -0.128187 1.89933e-09)
(0.943023 -0.159185 -7.37042e-10)
(0.942614 -0.191724 -3.05183e-09)
(0.946655 -0.224409 -4.76829e-09)
(0.955807 -0.25634 -6.05033e-09)
(0.970285 -0.286432 -6.99254e-09)
(0.989719 -0.313369 -7.61992e-09)
(1.01315 -0.335981 -7.97348e-09)
(1.03922 -0.353574 -8.11391e-09)
(1.06641 -0.365802 -8.11003e-09)
(1.09318 -0.372712 -8.0073e-09)
(1.11816 -0.374822 -7.84297e-09)
(1.14043 -0.373056 -7.63502e-09)
(1.00001 -0.00517692 1.96208e-10)
(0.995898 -0.0150383 1.31349e-09)
(0.98846 -0.0261504 2.47934e-09)
(0.978955 -0.0389589 3.6758e-09)
(0.967805 -0.0544411 4.79705e-09)
(0.955815 -0.0732211 4.83268e-09)
(0.943778 -0.0959645 4.07744e-09)
(0.932755 -0.123764 1.82278e-09)
(0.923759 -0.156127 -1.04738e-09)
(0.918085 -0.191322 -3.30053e-09)
(0.916943 -0.228372 -4.77558e-09)
(0.921545 -0.266608 -5.78431e-09)
(0.932673 -0.304828 -6.37019e-09)
(0.950514 -0.341283 -6.54802e-09)
(0.974632 -0.374111 -6.36471e-09)
(1.00393 -0.401638 -5.90071e-09)
(1.03661 -0.422333 -5.25884e-09)
(1.07044 -0.435153 -4.5288e-09)
(1.10306 -0.440006 -3.78806e-09)
(1.1326 -0.437923 -3.07244e-09)
(1.00002 -0.00473091 2.85882e-10)
(0.995525 -0.0136355 1.50575e-09)
(0.987354 -0.0238392 2.73648e-09)
(0.976752 -0.0357076 4.00231e-09)
(0.964025 -0.0502436 5.25343e-09)
(0.949828 -0.0681468 5.17272e-09)
(0.934858 -0.090241 4.30812e-09)
(0.919992 -0.117801 1.6582e-09)
(0.906213 -0.150598 -1.26356e-09)
(0.894953 -0.187383 -3.30818e-09)
(0.887704 -0.227668 -4.50704e-09)
(0.886029 -0.271162 -5.14914e-09)
(0.89128 -0.316895 -5.25795e-09)
(0.904381 -0.363068 -4.84399e-09)
(0.925698 -0.407473 -3.97217e-09)
(0.95515 -0.447564 -2.74507e-09)
(0.991227 -0.480158 -1.29338e-09)
(1.03152 -0.502252 2.26945e-10)
(1.07257 -0.512131 1.70736e-09)
(1.11159 -0.510315 3.06226e-09)
(1.00001 -0.00432122 3.79012e-10)
(0.995221 -0.0123467 1.5985e-09)
(0.986466 -0.021693 2.79912e-09)
(0.974981 -0.0326403 4.0511e-09)
(0.960952 -0.0461795 5.37491e-09)
(0.944889 -0.0630549 5.17576e-09)
(0.92737 -0.0841876 4.27769e-09)
(0.909059 -0.110971 1.39556e-09)
(0.890825 -0.143431 -1.42067e-09)
(0.874068 -0.180754 -3.19439e-09)
(0.860316 -0.222907 -4.07648e-09)
(0.851197 -0.270045 -4.33184e-09)
(0.848353 -0.321676 -3.90464e-09)
(0.853439 -0.376454 -2.82843e-09)
(0.867771 -0.43243 -1.1934e-09)
(0.892664 -0.486751 8.92093e-10)
(0.927826 -0.534737 3.26295e-09)
(0.972025 -0.570923 5.72341e-09)
(1.02115 -0.590952 8.09186e-09)
(1.074 -0.593732 1.03535e-08)
(1 -0.00395126 4.93678e-10)
(0.994976 -0.0111869 1.67743e-09)
(0.985764 -0.0197454 2.71857e-09)
(0.973573 -0.0298238 3.85095e-09)
(0.958487 -0.0423752 5.17197e-09)
(0.940877 -0.0581659 4.85159e-09)
(0.921202 -0.0781637 3.99188e-09)
(0.899915 -0.103827 1.00844e-09)
(0.877713 -0.135384 -1.5838e-09)
(0.855862 -0.172363 -3.04901e-09)
(0.835738 -0.215073 -3.61323e-09)
(0.81879 -0.26406 -3.46973e-09)
(0.806644 -0.319399 -2.52003e-09)
(0.801201 -0.380518 -7.89677e-10)
(0.804599 -0.446326 1.61876e-09)
(0.819136 -0.514553 4.60333e-09)
(0.846456 -0.580164 7.98876e-09)
(0.888188 -0.636082 1.15249e-08)
(0.940696 -0.67635 1.50123e-08)
(1.01501 -0.697065 1.89277e-08)
(0.999982 -0.00362111 5.54688e-10)
(0.994779 -0.0101588 1.61307e-09)
(0.985213 -0.018007 2.42123e-09)
(0.972464 -0.0272868 3.36366e-09)
(0.956525 -0.0388982 4.61802e-09)
(0.937651 -0.053614 4.17812e-09)
(0.916187 -0.0724115 3.39127e-09)
(0.892393 -0.0967692 5.2998e-10)
(0.866776 -0.127064 -1.76029e-09)
(0.840411 -0.16306 -2.91487e-09)
(0.814434 -0.205276 -3.18049e-09)
(0.789996 -0.254525 -2.67115e-09)
(0.76846 -0.311347 -1.24401e-09)
(0.751438 -0.375929 1.07457e-09)
(0.741157 -0.448253 4.20294e-09)
(0.739757 -0.527303 8.07378e-09)
(0.750587 -0.60968 1.25051e-08)
(0.777806 -0.690208 1.72428e-08)
(0.821962 -0.767846 2.21234e-08)
(0.924 -0.812034 2.93995e-08)
(0.999952 -0.00332896 6.17182e-10)
(0.994622 -0.00925741 1.54555e-09)
(0.984786 -0.0164737 2.0694e-09)
(0.971593 -0.0250327 2.77849e-09)
(0.954971 -0.0357746 3.92978e-09)
(0.935073 -0.0494679 3.39e-09)
(0.912145 -0.0670751 2.67429e-09)
(0.886276 -0.0900635 3.6264e-11)
(0.857785 -0.118907 -1.9338e-09)
(0.82755 -0.153519 -2.80572e-09)
(0.796453 -0.19452 -2.80745e-09)
(0.765335 -0.242862 -1.9819e-09)
(0.735186 -0.299339 -1.5252e-10)
(0.707015 -0.364587 2.66234e-09)
(0.682243 -0.439172 6.41588e-09)
(0.661243 -0.522987 1.10828e-08)
(0.646673 -0.614985 1.65269e-08)
(0.640643 -0.717312 2.25693e-08)
(0.687861 -0.845273 2.94007e-08)
(0.741579 -1.11986 4.11153e-08)
(0.999849 -0.000421959 3.79367e-10)
(1.0006 -0.000872707 2.46716e-10)
(1.00215 -0.00150566 6.85339e-10)
(1.00391 -0.00211906 4.46417e-10)
(1.00584 -0.00262012 4.77333e-10)
(1.00786 -0.00302268 4.20513e-10)
(1.00982 -0.00333735 3.78152e-10)
(1.01168 -0.00357679 2.41969e-10)
(1.01339 -0.00375477 -8.20181e-11)
(1.01496 -0.00388389 3.16082e-10)
(1.01637 -0.00397497 -1.64878e-11)
(1.01763 -0.004037 2.9349e-10)
(1.01875 -0.00407722 -1.0602e-11)
(1.01974 -0.00410135 1.58337e-10)
(1.02062 -0.00411379 -1.91316e-11)
(1.02139 -0.00411793 4.77631e-11)
(1.02206 -0.00411631 -3.65925e-11)
(1.02266 -0.00411084 -1.69344e-11)
(1.02318 -0.00410291 -5.36655e-11)
(1.02363 -0.00409356 2.79162e-12)
(0.99999 -0.00139027 1.89195e-10)
(1.00146 -0.00417085 2.12466e-10)
(1.00373 -0.00671957 2.03097e-10)
(1.00639 -0.00887175 1.57449e-10)
(1.00926 -0.0106248 9.87069e-11)
(1.01216 -0.0120247 3.9003e-11)
(1.01496 -0.0131172 -6.86499e-11)
(1.0176 -0.0139513 -3.21858e-10)
(1.02004 -0.0145753 -5.12212e-10)
(1.02225 -0.0150324 -5.05988e-10)
(1.02425 -0.0153593 -7.46854e-10)
(1.02603 -0.0155866 -8.06272e-10)
(1.02761 -0.0157387 -1.05912e-09)
(1.02901 -0.015835 -1.1211e-09)
(1.03024 -0.0158905 -1.25122e-09)
(1.03133 -0.0159167 -1.23858e-09)
(1.03228 -0.0159223 -1.21631e-09)
(1.03312 -0.0159138 -1.10919e-09)
(1.03385 -0.015896 -9.79382e-10)
(1.03449 -0.0158724 -8.51363e-10)
(0.999979 -0.00278593 1.2604e-10)
(1.00155 -0.00804938 1.37645e-10)
(1.0042 -0.0126034 7.97831e-11)
(1.00743 -0.0164316 3.67717e-11)
(1.01096 -0.0195754 -3.33214e-11)
(1.01458 -0.0220995 -8.93858e-11)
(1.01814 -0.0240804 -2.01664e-10)
(1.02152 -0.0256007 -3.87102e-10)
(1.02467 -0.0267416 -5.12846e-10)
(1.02755 -0.0275776 -5.25594e-10)
(1.03016 -0.0281739 -6.323e-10)
(1.03249 -0.0285854 -6.16979e-10)
(1.03457 -0.0288572 -6.32297e-10)
(1.03641 -0.029025 -5.05286e-10)
(1.03804 -0.029117 -3.74261e-10)
(1.03947 -0.0291545 -1.82345e-10)
(1.04073 -0.0291541 -4.20752e-11)
(1.04183 -0.0291278 6.12037e-11)
(1.04279 -0.0290848 1.05435e-10)
(1.04364 -0.0290317 7.78377e-11)
(1 -0.00404019 1.28033e-10)
(1.0018 -0.0116356 1.59643e-10)
(1.00481 -0.0182668 1.02512e-10)
(1.00858 -0.0239445 7.00392e-11)
(1.01282 -0.0287038 7.20911e-12)
(1.01727 -0.0326016 -4.6047e-11)
(1.02172 -0.0357173 -1.52385e-10)
(1.02604 -0.0381471 -3.10643e-10)
(1.03011 -0.0399948 -4.10203e-10)
(1.03389 -0.0413634 -4.09868e-10)
(1.03733 -0.0423478 -4.4892e-10)
(1.04044 -0.0430315 -3.72988e-10)
(1.04321 -0.0434849 -2.91911e-10)
(1.04568 -0.0437655 -1.00191e-10)
(1.04786 -0.043919 6.42167e-11)
(1.04979 -0.0439811 2.31348e-10)
(1.05148 -0.0439789 3.28871e-10)
(1.05296 -0.0439331 3.89668e-10)
(1.05426 -0.0438591 4.02221e-10)
(1.0554 -0.0437681 3.61872e-10)
(1.00002 -0.00521581 6.23239e-11)
(1.00187 -0.0150824 6.39368e-12)
(1.00506 -0.0238391 -1.20212e-10)
(1.00921 -0.0315265 -1.63326e-10)
(1.01404 -0.0381546 -2.15401e-10)
(1.01927 -0.0437377 -2.49793e-10)
(1.02468 -0.0483192 -3.35783e-10)
(1.03006 -0.0519772 -4.7047e-10)
(1.03525 -0.0548168 -5.32703e-10)
(1.04014 -0.0569573 -4.83353e-10)
(1.04467 -0.0585205 -4.50386e-10)
(1.0488 -0.0596207 -2.87663e-10)
(1.05253 -0.0603596 -1.15667e-10)
(1.05586 -0.0608235 1.51028e-10)
(1.05882 -0.0610826 3.58013e-10)
(1.06144 -0.061193 5.4097e-10)
(1.06374 -0.0611985 6.32638e-10)
(1.06576 -0.0611321 6.76341e-10)
(1.06754 -0.0610188 6.66209e-10)
(1.06909 -0.0608771 6.05267e-10)
(1.00003 -0.00619904 2.0358e-10)
(1.00174 -0.0179939 1.29268e-10)
(1.00478 -0.0287157 -2.08204e-11)
(1.00893 -0.0384404 -9.77144e-11)
(1.014 -0.0471352 -1.75349e-10)
(1.01976 -0.0547335 -2.15415e-10)
(1.02598 -0.061192 -2.90519e-10)
(1.03239 -0.0665194 -4.09079e-10)
(1.03879 -0.0707799 -4.63813e-10)
(1.04499 -0.0740803 -4.14489e-10)
(1.05084 -0.0765525 -3.65194e-10)
(1.05628 -0.0783373 -1.79118e-10)
(1.06125 -0.0795703 2.80934e-11)
(1.06574 -0.0803736 3.22064e-10)
(1.06976 -0.0808508 5.47946e-10)
(1.07334 -0.0810873 7.44537e-10)
(1.0765 -0.0811509 8.45605e-10)
(1.07928 -0.081094 8.96798e-10)
(1.08172 -0.0809565 8.93668e-10)
(1.08387 -0.0807682 8.31275e-10)
(1.00002 -0.00691494 -8.01991e-11)
(1.00134 -0.02017 -5.82156e-11)
(1.00381 -0.0325562 -3.01889e-11)
(1.00744 -0.0442084 -9.93356e-11)
(1.01221 -0.0550671 -2.33363e-10)
(1.01802 -0.0649699 -3.32933e-10)
(1.02468 -0.073746 -4.62203e-10)
(1.03192 -0.0812781 -6.34401e-10)
(1.03946 -0.0875337 -7.39217e-10)
(1.04705 -0.0925584 -7.37473e-10)
(1.05446 -0.0964588 -7.044e-10)
(1.06153 -0.0993808 -5.1969e-10)
(1.06813 -0.101485 -2.81029e-10)
(1.07418 -0.102925 4.24468e-11)
(1.07965 -0.103843 3.09377e-10)
(1.08454 -0.104362 5.45051e-10)
(1.08887 -0.104582 6.91421e-10)
(1.09268 -0.104588 7.7717e-10)
(1.09603 -0.104444 8.03816e-10)
(1.09895 -0.104202 7.43983e-10)
(1.00002 -0.00732477 -2.9639e-11)
(1.00073 -0.0214647 3.72913e-11)
(1.0022 -0.0350641 2.97541e-11)
(1.00476 -0.0483503 -9.10762e-11)
(1.00859 -0.0612833 -2.56678e-10)
(1.01378 -0.0736335 -4.13402e-10)
(1.02027 -0.0850931 -6.2708e-10)
(1.02786 -0.0953825 -9.00997e-10)
(1.03628 -0.104331 -1.11638e-09)
(1.04524 -0.111865 -1.21633e-09)
(1.0544 -0.117993 -1.24173e-09)
(1.06345 -0.122786 -1.08614e-09)
(1.07208 -0.126357 -8.57386e-10)
(1.08009 -0.128857 -5.56487e-10)
(1.08737 -0.130467 -3.18981e-10)
(1.09387 -0.131374 -1.26094e-10)
(1.09961 -0.13175 -3.20276e-11)
(1.10465 -0.131742 -1.10885e-11)
(1.10904 -0.131472 -5.50449e-11)
(1.11286 -0.131031 -1.9829e-10)
(1.00001 -0.0074428 -9.74952e-11)
(0.999959 -0.0218945 -4.1077e-11)
(1.00013 -0.036193 -8.52589e-11)
(1.00115 -0.0506791 -1.79941e-10)
(1.00339 -0.0653978 -3.042e-10)
(1.0072 -0.0801241 -4.85987e-10)
(1.01275 -0.0944482 -7.7206e-10)
(1.01997 -0.107961 -1.13101e-09)
(1.02876 -0.120389 -1.43569e-09)
(1.03886 -0.131458 -1.57541e-09)
(1.04978 -0.14085 -1.57329e-09)
(1.06088 -0.148334 -1.40708e-09)
(1.07165 -0.153884 -1.2077e-09)
(1.08172 -0.157681 -1.00944e-09)
(1.09091 -0.160024 -8.94348e-10)
(1.09915 -0.161235 -8.47559e-10)
(1.10643 -0.161614 -9.05364e-10)
(1.11282 -0.161409 -1.04259e-09)
(1.11838 -0.160815 -1.24111e-09)
(1.12321 -0.159982 -1.53e-09)
(0.999996 -0.00731872 -2.45844e-11)
(0.999126 -0.0215811 1.33703e-11)
(0.997835 -0.0360739 -1.07025e-10)
(0.996985 -0.0512461 -2.35455e-10)
(0.997126 -0.0672938 -3.87344e-10)
(0.998875 -0.0840811 -6.22712e-10)
(1.00262 -0.101175 -9.41597e-10)
(1.00859 -0.1182 -1.28782e-09)
(1.017 -0.134864 -1.51225e-09)
(1.0276 -0.150397 -1.51936e-09)
(1.03964 -0.163785 -1.41392e-09)
(1.05228 -0.174448 -1.2527e-09)
(1.06486 -0.182339 -1.15996e-09)
(1.07693 -0.187744 -1.12495e-09)
(1.08819 -0.191088 -1.19043e-09)
(1.09847 -0.192822 -1.33752e-09)
(1.1077 -0.193361 -1.5917e-09)
(1.11587 -0.193055 -1.92803e-09)
(1.12305 -0.192183 -2.32523e-09)
(1.1293 -0.190959 -2.79947e-09)
(0.999991 -0.00701756 1.5456e-10)
(0.998308 -0.0207081 1.88366e-10)
(0.995525 -0.034965 -2.23408e-11)
(0.992684 -0.0503153 -1.88356e-10)
(0.990424 -0.0671508 -3.55719e-10)
(0.989584 -0.0854863 -5.93932e-10)
(0.990757 -0.104989 -8.53232e-10)
(0.994561 -0.125533 -9.93767e-10)
(1.00151 -0.146715 -9.90275e-10)
(1.01134 -0.166979 -7.88514e-10)
(1.02332 -0.184706 -6.57105e-10)
(1.03668 -0.199204 -6.15491e-10)
(1.05077 -0.210374 -6.77515e-10)
(1.065 -0.218433 -7.87351e-10)
(1.07887 -0.22377 -9.70173e-10)
(1.09196 -0.226863 -1.21321e-09)
(1.10402 -0.228201 -1.5429e-09)
(1.1149 -0.228238 -1.94738e-09)
(1.12457 -0.227361 -2.4072e-09)
(1.13306 -0.225885 -2.93784e-09)
(0.999991 -0.00660498 2.40221e-10)
(0.997559 -0.0194679 2.70816e-10)
(0.993366 -0.0331649 -1.29349e-11)
(0.988572 -0.0482579 -1.71503e-10)
(0.983829 -0.0653433 -2.64839e-10)
(0.980111 -0.0846115 -3.88684e-10)
(0.978161 -0.105951 -4.49006e-10)
(0.978942 -0.129589 -2.83848e-10)
(0.98316 -0.154898 1.1218e-10)
(0.990765 -0.179695 3.3643e-10)
(1.00139 -0.202209 3.71701e-10)
(1.01461 -0.221657 2.27604e-10)
(1.02988 -0.237632 8.65396e-11)
(1.04646 -0.250012 -2.09237e-11)
(1.06358 -0.258928 -1.1208e-10)
(1.08048 -0.264739 -2.27794e-10)
(1.09657 -0.267929 -4.00074e-10)
(1.11143 -0.269027 -6.15616e-10)
(1.12481 -0.268553 -9.09533e-10)
(1.13664 -0.266976 -1.27621e-09)
(0.999996 -0.00613577 5.19151e-11)
(0.996906 -0.0180292 1.07071e-10)
(0.991453 -0.0309535 -2.04085e-10)
(0.984859 -0.0454631 -2.75935e-10)
(0.977736 -0.0623309 -1.42174e-10)
(0.971082 -0.0819231 -4.03806e-11)
(0.965726 -0.104407 2.11384e-10)
(0.962823 -0.130345 7.26521e-10)
(0.963205 -0.15898 1.26642e-09)
(0.967324 -0.18795 1.55709e-09)
(0.975306 -0.215599 1.38241e-09)
(0.987246 -0.241042 1.20422e-09)
(1.00289 -0.263447 1.17508e-09)
(1.02153 -0.282132 1.31325e-09)
(1.04215 -0.296709 1.54013e-09)
(1.06364 -0.307171 1.77543e-09)
(1.08494 -0.313786 2.01432e-09)
(1.10517 -0.317025 2.14116e-09)
(1.12368 -0.317501 2.20367e-09)
(1.14009 -0.315897 2.12477e-09)
(1 -0.00565067 1.16056e-10)
(0.996355 -0.0165222 2.00032e-10)
(0.989819 -0.0285593 -1.06713e-10)
(0.981647 -0.0422739 -3.09432e-11)
(0.972369 -0.0585684 4.28969e-10)
(0.962914 -0.0779557 8.17994e-10)
(0.954128 -0.100878 1.40083e-09)
(0.947181 -0.128187 2.0618e-09)
(0.943023 -0.159185 2.62216e-09)
(0.942614 -0.191724 2.63388e-09)
(0.946655 -0.224409 2.47285e-09)
(0.955807 -0.25634 2.43362e-09)
(0.970285 -0.286432 2.74094e-09)
(0.989719 -0.313369 3.33322e-09)
(1.01315 -0.335981 4.0429e-09)
(1.03922 -0.353574 4.773e-09)
(1.06641 -0.365802 5.41005e-09)
(1.09318 -0.372712 5.93279e-09)
(1.11816 -0.374822 6.28819e-09)
(1.14043 -0.373056 6.48488e-09)
(1.00001 -0.00517692 3.2239e-11)
(0.995898 -0.0150383 1.82656e-10)
(0.98846 -0.0261504 -5.43301e-11)
(0.978955 -0.0389589 2.52947e-10)
(0.967805 -0.0544411 1.15115e-09)
(0.955815 -0.0732212 1.88156e-09)
(0.943778 -0.0959646 2.81865e-09)
(0.932755 -0.123764 3.44217e-09)
(0.923759 -0.156127 3.79249e-09)
(0.918085 -0.191322 3.74974e-09)
(0.916943 -0.228372 3.55245e-09)
(0.921545 -0.266608 3.83896e-09)
(0.932673 -0.304828 4.61753e-09)
(0.950514 -0.341283 5.67728e-09)
(0.974632 -0.374111 6.85147e-09)
(1.00393 -0.401638 8.00745e-09)
(1.03661 -0.422333 9.03934e-09)
(1.07044 -0.435153 9.8202e-09)
(1.10306 -0.440006 1.03696e-08)
(1.1326 -0.437923 1.06728e-08)
(1.00002 -0.00473091 1.0267e-10)
(0.995525 -0.0136355 2.73255e-10)
(0.987354 -0.0238392 1.2011e-10)
(0.976752 -0.0357076 6.73712e-10)
(0.964025 -0.0502437 2.01604e-09)
(0.949828 -0.0681468 3.04083e-09)
(0.934858 -0.0902411 4.29476e-09)
(0.919992 -0.117801 4.72017e-09)
(0.906213 -0.150598 4.88408e-09)
(0.894953 -0.187383 4.64858e-09)
(0.887704 -0.227668 4.62206e-09)
(0.886029 -0.271162 5.17574e-09)
(0.89128 -0.316895 6.33455e-09)
(0.904381 -0.363068 7.79142e-09)
(0.925698 -0.407473 9.27985e-09)
(0.95515 -0.447564 1.06408e-08)
(0.991227 -0.480158 1.17679e-08)
(1.03152 -0.502252 1.25679e-08)
(1.07257 -0.512131 1.30001e-08)
(1.11159 -0.510315 1.31242e-08)
(1.00001 -0.00432122 2.13531e-10)
(0.995221 -0.0123468 4.32728e-10)
(0.986466 -0.021693 3.76009e-10)
(0.974981 -0.0326403 1.15198e-09)
(0.960952 -0.0461796 2.88525e-09)
(0.944889 -0.063055 4.14101e-09)
(0.92737 -0.0841876 5.66866e-09)
(0.909059 -0.110972 5.64063e-09)
(0.890825 -0.143431 5.62241e-09)
(0.874068 -0.180754 5.36475e-09)
(0.860316 -0.222907 5.51757e-09)
(0.851197 -0.270045 6.40033e-09)
(0.848353 -0.321676 7.7447e-09)
(0.853439 -0.376454 9.30109e-09)
(0.867771 -0.43243 1.09304e-08)
(0.892664 -0.486751 1.22288e-08)
(0.927826 -0.534737 1.31432e-08)
(0.972025 -0.570923 1.35475e-08)
(1.02115 -0.590952 1.3412e-08)
(1.074 -0.593732 1.27589e-08)
(1 -0.00395126 1.88553e-10)
(0.994976 -0.0111869 5.11029e-10)
(0.985764 -0.0197454 5.74551e-10)
(0.973573 -0.0298238 1.56641e-09)
(0.958487 -0.0423752 3.64736e-09)
(0.940877 -0.058166 5.07766e-09)
(0.921202 -0.0781638 6.8664e-09)
(0.899915 -0.103827 6.2835e-09)
(0.877713 -0.135384 6.16257e-09)
(0.855862 -0.172364 5.88269e-09)
(0.835738 -0.215073 6.23189e-09)
(0.81879 -0.26406 7.35061e-09)
(0.806644 -0.319399 8.71945e-09)
(0.801201 -0.380518 1.02075e-08)
(0.804599 -0.446326 1.15432e-08)
(0.819136 -0.514553 1.25635e-08)
(0.846456 -0.580164 1.29441e-08)
(0.888188 -0.636082 1.25555e-08)
(0.940696 -0.67635 1.13225e-08)
(1.01501 -0.697065 8.66765e-09)
(0.999982 -0.00362111 3.10864e-10)
(0.994779 -0.0101588 6.70031e-10)
(0.985213 -0.0180071 7.12895e-10)
(0.972464 -0.0272869 1.72403e-09)
(0.956525 -0.0388982 3.92888e-09)
(0.937651 -0.053614 5.39943e-09)
(0.916187 -0.0724115 7.40207e-09)
(0.892393 -0.0967693 6.59178e-09)
(0.866776 -0.127064 6.50365e-09)
(0.840411 -0.16306 6.29396e-09)
(0.814434 -0.205276 6.79873e-09)
(0.789996 -0.254525 7.97706e-09)
(0.76846 -0.311347 9.25999e-09)
(0.751438 -0.375929 1.04707e-08)
(0.741157 -0.448253 1.14837e-08)
(0.739757 -0.527303 1.19567e-08)
(0.750587 -0.60968 1.15749e-08)
(0.777806 -0.690208 1.00036e-08)
(0.821962 -0.767846 6.98187e-09)
(0.924 -0.812034 -1.42669e-10)
(0.999952 -0.00332896 2.48779e-10)
(0.994622 -0.00925742 5.19179e-10)
(0.984786 -0.0164737 3.93548e-10)
(0.971593 -0.0250327 1.25434e-09)
(0.954971 -0.0357746 3.40805e-09)
(0.935073 -0.049468 4.8329e-09)
(0.912145 -0.0670751 6.96766e-09)
(0.886276 -0.0900635 6.51747e-09)
(0.857785 -0.118907 6.62904e-09)
(0.82755 -0.153519 6.5195e-09)
(0.796453 -0.19452 7.11533e-09)
(0.765335 -0.242862 8.36551e-09)
(0.735186 -0.299339 9.5136e-09)
(0.707015 -0.364587 1.0456e-08)
(0.682243 -0.439172 1.10393e-08)
(0.661243 -0.522987 1.0954e-08)
(0.646673 -0.614985 9.59391e-09)
(0.640643 -0.717312 6.36264e-09)
(0.687861 -0.845273 5.54635e-10)
(0.741579 -1.11986 -1.45715e-08)
(0.999849 -0.000421959 3.27878e-10)
(1.0006 -0.000872707 2.05811e-10)
(1.00215 -0.00150566 4.90132e-10)
(1.00391 -0.00211906 4.14528e-10)
(1.00584 -0.00262012 4.00076e-10)
(1.00786 -0.00302268 4.26582e-10)
(1.00982 -0.00333735 4.25049e-10)
(1.01168 -0.00357679 4.80164e-10)
(1.01339 -0.00375477 4.61136e-10)
(1.01496 -0.00388389 6.00673e-10)
(1.01637 -0.00397497 5.60153e-10)
(1.01763 -0.004037 6.28456e-10)
(1.01875 -0.00407722 6.16055e-10)
(1.01974 -0.00410134 6.53823e-10)
(1.02062 -0.00411379 6.61655e-10)
(1.02139 -0.00411792 6.7302e-10)
(1.02206 -0.00411631 6.78615e-10)
(1.02266 -0.00411084 6.74786e-10)
(1.02318 -0.00410291 6.74956e-10)
(1.02363 -0.00409356 6.62137e-10)
(0.99999 -0.00139027 1.88217e-10)
(1.00146 -0.00417085 1.99686e-10)
(1.00373 -0.00671957 2.20917e-10)
(1.00639 -0.00887175 1.92095e-10)
(1.00926 -0.0106248 1.43487e-10)
(1.01216 -0.0120247 8.36887e-11)
(1.01496 -0.0131172 2.51299e-11)
(1.0176 -0.0139513 -7.68723e-11)
(1.02004 -0.0145753 -1.82945e-10)
(1.02225 -0.0150324 -2.3197e-10)
(1.02425 -0.0153593 -3.60082e-10)
(1.02603 -0.0155866 -4.42428e-10)
(1.02761 -0.0157387 -5.52616e-10)
(1.02901 -0.015835 -6.32943e-10)
(1.03024 -0.0158905 -7.18542e-10)
(1.03133 -0.0159167 -7.94876e-10)
(1.03228 -0.0159223 -8.68514e-10)
(1.03312 -0.0159138 -9.3957e-10)
(1.03385 -0.015896 -1.00606e-09)
(1.03449 -0.0158724 -1.07383e-09)
(0.999979 -0.00278593 1.12481e-10)
(1.00155 -0.00804938 1.12437e-10)
(1.0042 -0.0126034 6.76357e-11)
(1.00743 -0.0164316 1.66525e-11)
(1.01096 -0.0195754 -5.95948e-11)
(1.01458 -0.0220995 -1.2749e-10)
(1.01814 -0.0240804 -2.00406e-10)
(1.02152 -0.0256007 -2.94816e-10)
(1.02467 -0.0267416 -3.64535e-10)
(1.02755 -0.0275776 -3.84286e-10)
(1.03016 -0.0281739 -4.21588e-10)
(1.03249 -0.0285854 -4.18453e-10)
(1.03457 -0.0288572 -4.10067e-10)
(1.03641 -0.029025 -3.81851e-10)
(1.03804 -0.029117 -3.57551e-10)
(1.03947 -0.0291545 -3.4547e-10)
(1.04073 -0.0291541 -3.49274e-10)
(1.04183 -0.0291278 -3.70925e-10)
(1.04279 -0.0290848 -3.99563e-10)
(1.04364 -0.0290317 -4.3695e-10)
(1 -0.00404019 9.86102e-11)
(1.0018 -0.0116356 1.19236e-10)
(1.00481 -0.0182668 6.56126e-11)
(1.00858 -0.0239445 1.26042e-11)
(1.01282 -0.0287038 -7.26033e-11)
(1.01727 -0.0326016 -1.5294e-10)
(1.02172 -0.0357173 -2.43265e-10)
(1.02604 -0.0381471 -3.48251e-10)
(1.03011 -0.0399948 -4.18484e-10)
(1.03389 -0.0413634 -4.34736e-10)
(1.03733 -0.0423478 -4.46674e-10)
(1.04044 -0.0430315 -4.12938e-10)
(1.04321 -0.0434849 -3.67747e-10)
(1.04568 -0.0437655 -3.04192e-10)
(1.04786 -0.043919 -2.574e-10)
(1.04979 -0.0439811 -2.28291e-10)