/*--------------------------------*- C++ -*----------------------------------*\
| =========                 |                                                 |
| \\      /  F ield         | OpenFOAM: The Open Source CFD Toolbox           |
|  \\    /   O peration     | Version:  4.x                                   |
|   \\  /    A nd           | Web:      www.OpenFOAM.org                      |
|    \\/     M anipulation  |                                                 |
\*---------------------------------------------------------------------------*/
FoamFile
{
    version     2.0;
    format      ascii;
    class       volScalarField;
    location    "1000";
    object      nut;
}
// * * * * * * * * * * * * * * * * * * * * * * * * * * * * * * * * * * * * * //

dimensions      [0 2 -1 0 0 0 0];

internalField   nonuniform List<scalar> 
237650
(
4.37504e-05
4.79876e-05
4.77811e-05
4.2408e-05
3.24468e-05
2.02546e-05
1.0774e-05
1.01097e-05
1.17715e-05
2.29225e-05
2.56806e-05
3.83808e-05
5.38429e-05
1.86888e-05
3.44835e-05
4.56835e-05
5.09662e-05
5.11269e-05
5.47703e-05
7.5701e-05
9.52014e-05
0.000102317
8.95599e-05
4.0601e-05
1.02017e-05
1.41636e-05
2.15913e-05
1.2854e-05
1.18572e-05
2.24644e-05
5.21969e-05
5.29557e-05
3.21353e-05
1.72104e-05
3.18147e-05
5.8729e-05
3.86578e-05
3.88671e-05
6.72536e-05
7.30373e-05
5.34395e-05
3.09379e-05
1.45437e-05
1.14887e-05
1.38159e-05
1.39088e-05
1.20822e-05
1.4773e-05
2.51999e-05
3.58966e-05
6.62155e-05
6.75539e-05
6.39588e-05
5.4981e-05
4.29622e-05
3.21972e-05
2.32254e-05
1.73952e-05
1.58509e-05
2.26486e-05
2.88426e-05
4.18178e-05
5.52407e-05
2.35615e-05
5.43433e-05
7.01214e-05
6.90702e-05
6.24467e-05
6.31422e-05
8.15252e-05
9.46917e-05
9.95717e-05
0.000101112
5.81488e-05
1.4939e-05
2.222e-05
3.65461e-05
2.39114e-05
1.82921e-05
4.0397e-05
7.06732e-05
7.48032e-05
5.86233e-05
3.85822e-05
2.81008e-05
2.66384e-05
3.01711e-05
3.95127e-05
8.47168e-05
9.6948e-05
8.28792e-05
6.35013e-05
4.78075e-05
3.76556e-05
3.42176e-05
3.37364e-05
3.51305e-05
4.10662e-05
5.11157e-05
6.06157e-05
8.10412e-05
8.13686e-05
7.75376e-05
6.81837e-05
5.43473e-05
4.20245e-05
3.28201e-05
2.60856e-05
2.17912e-05
2.34432e-05
3.19604e-05
4.60046e-05
5.17888e-05
2.69456e-05
6.925e-05
7.63685e-05
7.16838e-05
6.33298e-05
6.38213e-05
7.80851e-05
8.25062e-05
8.34793e-05
9.00936e-05
8.03377e-05
1.75071e-05
2.86034e-05
4.83355e-05
3.02182e-05
2.39063e-05
5.50182e-05
8.6968e-05
9.17547e-05
7.86449e-05
5.89567e-05
4.51419e-05
2.25025e-05
2.49435e-05
4.66564e-05
0.000100317
0.000109165
9.66042e-05
7.8703e-05
6.53035e-05
5.59626e-05
5.3343e-05
5.38143e-05
5.58069e-05
6.07489e-05
6.9056e-05
7.69906e-05
8.96048e-05
8.8744e-05
8.69363e-05
8.15398e-05
6.93693e-05
5.48947e-05
4.55307e-05
3.80208e-05
3.27058e-05
2.66835e-05
3.58942e-05
5.24896e-05
4.03024e-05
3.56282e-05
7.22464e-05
6.1511e-05
5.75318e-05
5.33872e-05
5.58389e-05
5.77288e-05
4.83693e-05
4.5346e-05
5.24332e-05
9.23662e-05
2.08792e-05
3.60376e-05
5.84863e-05
3.79392e-05
3.13116e-05
7.55702e-05
9.34276e-05
9.26632e-05
9.14066e-05
8.14162e-05
6.6284e-05
4.18587e-05
2.38168e-05
6.59556e-05
0.000104669
9.429e-05
9.20643e-05
8.29506e-05
7.88608e-05
7.64302e-05
7.87182e-05
8.19385e-05
8.40456e-05
8.52628e-05
8.74016e-05
8.94797e-05
7.39796e-05
7.21776e-05
7.44869e-05
7.78593e-05
7.5392e-05
6.39279e-05
5.46463e-05
4.70437e-05
4.20734e-05
3.16978e-05
3.64941e-05
5.45329e-05
2.91318e-05
4.92164e-05
4.64256e-05
2.99862e-05
3.22632e-05
3.53293e-05
4.0493e-05
2.98425e-05
2.13989e-05
2.28191e-05
3.54321e-05
6.60648e-05
2.45399e-05
4.0242e-05
5.36159e-05
4.22515e-05
3.96186e-05
8.48354e-05
6.38095e-05
5.63776e-05
7.01016e-05
8.05348e-05
7.67338e-05
5.92951e-05
3.55535e-05
9.24733e-05
6.77623e-05
4.53774e-05
5.79579e-05
6.65478e-05
7.60372e-05
8.5779e-05
9.49122e-05
9.95532e-05
9.94464e-05
9.47757e-05
8.71737e-05
7.95028e-05
3.98855e-05
3.823e-05
4.37111e-05
5.52129e-05
6.57103e-05
6.50089e-05
5.76124e-05
5.16809e-05
4.4591e-05
3.67229e-05
3.3855e-05
4.47302e-05
2.9281e-05
5.8978e-05
1.70581e-05
1.22503e-05
1.26599e-05
1.86971e-05
2.56199e-05
1.35515e-05
1.67622e-05
1.64332e-05
2.99743e-05
3.90449e-05
2.92991e-05
4.19733e-05
3.57597e-05
4.06438e-05
5.06659e-05
6.76043e-05
2.39778e-05
2.24524e-05
3.23285e-05
5.24521e-05
6.82766e-05
6.31041e-05
5.1723e-05
0.000101121
2.27385e-05
1.6028e-05
2.05623e-05
4.1769e-05
5.99896e-05
7.79179e-05
8.82435e-05
8.95495e-05
8.54064e-05
7.59762e-05
6.174e-05
4.80537e-05
1.28315e-05
1.31838e-05
1.67785e-05
2.72229e-05
4.42221e-05
5.54081e-05
5.37584e-05
5.03944e-05
4.08804e-05
3.72335e-05
2.9309e-05
2.45869e-05
3.58031e-05
5.33181e-05
1.91823e-05
1.65536e-05
5.89683e-06
9.72818e-06
1.41984e-05
1.53333e-05
1.84564e-05
1.44295e-05
2.44417e-05
3.47621e-05
3.33006e-05
4.16097e-05
2.0377e-05
3.38357e-05
6.24611e-05
3.1576e-05
1.6369e-05
1.81684e-05
1.68039e-05
2.12677e-05
4.3908e-05
5.28583e-05
6.70648e-05
6.45852e-05
1.38518e-05
1.26118e-05
5.17769e-06
2.22684e-05
3.88788e-05
5.37702e-05
5.66589e-05
5.20154e-05
4.56854e-05
3.69102e-05
2.56073e-05
1.64802e-05
1.04933e-05
1.16094e-05
1.21312e-05
1.48475e-05
2.84619e-05
4.40889e-05
4.76349e-05
4.55193e-05
3.71394e-05
3.3921e-05
2.56233e-05
1.18655e-05
3.91728e-05
3.68937e-05
2.25596e-05
1.80063e-05
9.03346e-06
7.89197e-06
7.71802e-06
1.88717e-05
1.87709e-05
1.35264e-05
2.01909e-05
3.44299e-05
3.51979e-05
3.87042e-05
1.77132e-05
2.85959e-05
6.64913e-05
1.55892e-05
1.95225e-05
1.90729e-05
1.68166e-05
1.27421e-05
2.72032e-05
4.20009e-05
8.02648e-05
2.99251e-05
1.39997e-05
1.17045e-05
5.01466e-06
1.44951e-05
2.6371e-05
3.42489e-05
3.12042e-05
2.50707e-05
2.03317e-05
1.56423e-05
1.12016e-05
9.63341e-06
1.26441e-05
1.34152e-05
1.38581e-05
1.24268e-05
1.39338e-05
2.80799e-05
3.71418e-05
3.59038e-05
3.24692e-05
2.64416e-05
2.09942e-05
8.03835e-06
4.06772e-05
1.80247e-05
2.81548e-05
2.04107e-05
1.51827e-05
1.01352e-05
7.23268e-06
2.12934e-05
1.83429e-05
1.23602e-05
1.46959e-05
3.27587e-05
3.60009e-05
2.84221e-05
1.83511e-05
2.54868e-05
5.81426e-05
1.51896e-05
2.28405e-05
2.10502e-05
1.72146e-05
1.30706e-05
1.32974e-05
3.22894e-05
9.31405e-05
1.9258e-05
1.44287e-05
1.11952e-05
6.37337e-06
1.05075e-05
1.74755e-05
1.62428e-05
1.05568e-05
9.42073e-06
9.88834e-06
1.04225e-05
1.11318e-05
1.19172e-05
1.24495e-05
1.33564e-05
1.42131e-05
1.3473e-05
9.91542e-06
1.5022e-05
2.74162e-05
2.82118e-05
2.7546e-05
1.97675e-05
1.75077e-05
1.25382e-05
4.05118e-05
1.68682e-05
2.88448e-05
2.34359e-05
1.8897e-05
1.4593e-05
1.22718e-05
1.9014e-05
1.75838e-05
1.13467e-05
1.0999e-05
2.57459e-05
3.5263e-05
1.60291e-05
1.84016e-05
2.93966e-05
3.56444e-05
1.69728e-05
2.13477e-05
2.30492e-05
1.71811e-05
1.33824e-05
1.19763e-05
3.04741e-05
7.39029e-05
2.06719e-05
1.52773e-05
1.14669e-05
8.31907e-06
1.08343e-05
1.57104e-05
1.1123e-05
9.79702e-06
1.15287e-05
1.16828e-05
1.16827e-05
1.18411e-05
1.20667e-05
1.20342e-05
1.3469e-05
1.44743e-05
1.37617e-05
9.88858e-06
6.56281e-06
1.83767e-05
2.43585e-05
2.25906e-05
1.68115e-05
1.46033e-05
1.65649e-05
4.04016e-05
1.73035e-05
2.65605e-05
2.495e-05
1.94472e-05
1.82354e-05
1.49327e-05
1.42097e-05
1.69029e-05
1.05449e-05
9.50276e-06
2.14976e-05
3.5253e-05
1.65158e-05
1.97762e-05
3.71118e-05
1.70208e-05
1.43828e-05
1.80375e-05
2.2578e-05
1.70127e-05
1.4405e-05
1.93528e-05
3.00932e-05
2.76222e-05
2.15082e-05
1.62168e-05
1.22577e-05
1.06688e-05
1.34208e-05
1.59715e-05
1.2123e-05
1.3867e-05
1.38212e-05
1.25889e-05
1.18158e-05
1.15381e-05
1.1558e-05
1.17864e-05
1.3729e-05
1.49282e-05
1.45353e-05
1.02665e-05
5.41626e-06
1.02304e-05
2.15151e-05
2.02837e-05
1.69896e-05
1.22345e-05
1.94045e-05
4.01252e-05
1.53627e-05
2.17027e-05
2.71782e-05
1.88319e-05
1.92644e-05
1.48545e-05
1.00185e-05
1.66813e-05
9.92253e-06
9.04187e-06
2.46513e-05
3.79064e-05
2.02367e-05
2.10812e-05
4.41274e-05
1.34205e-05
8.55935e-06
1.80416e-05
2.13916e-05
1.65294e-05
1.47668e-05
2.58383e-05
2.99418e-05
2.6267e-05
2.27524e-05
1.66e-05
1.32451e-05
1.29843e-05
1.70968e-05
1.67893e-05
1.49093e-05
1.70625e-05
1.47439e-05
1.2784e-05
1.18085e-05
1.12531e-05
1.10353e-05
1.15086e-05
1.40641e-05
1.64886e-05
1.62985e-05
1.26419e-05
5.72193e-06
5.60631e-06
1.84217e-05
2.12572e-05
1.85489e-05
1.14913e-05
2.06751e-05
3.71044e-05
1.38872e-05
1.50859e-05
2.69438e-05
1.65606e-05
1.66989e-05
1.26666e-05
7.59944e-06
1.70359e-05
9.46225e-06
8.72847e-06
2.82982e-05
4.12641e-05
1.67001e-05
2.08779e-05
4.81488e-05
1.33766e-05
7.57446e-06
1.83687e-05
2.17307e-05
1.6016e-05
1.40042e-05
2.71182e-05
3.51529e-05
3.56006e-05
2.22904e-05
1.5917e-05
1.40729e-05
1.50032e-05
2.07327e-05
1.80588e-05
1.8184e-05
1.84938e-05
1.43442e-05
1.24117e-05
1.16016e-05
1.06959e-05
1.02282e-05
1.15401e-05
1.55118e-05
1.93804e-05
2.10155e-05
1.37997e-05
8.68376e-06
6.45405e-06
1.43237e-05
2.30799e-05
2.05228e-05
1.24564e-05
2.04515e-05
3.24218e-05
1.35883e-05
1.11259e-05
2.28317e-05
1.32776e-05
1.17282e-05
1.0007e-05
8.34384e-06
1.7731e-05
9.15184e-06
8.56951e-06
2.75025e-05
4.18401e-05
1.52944e-05
1.94836e-05
4.91173e-05
1.15047e-05
1.15828e-05
1.77354e-05
2.20865e-05
1.56315e-05
1.33088e-05
2.29558e-05
4.06676e-05
3.22988e-05
2.0142e-05
1.43969e-05
1.44968e-05
1.64555e-05
2.35731e-05
1.96072e-05
2.07772e-05
1.80047e-05
1.28312e-05
1.13837e-05
1.06984e-05
9.31782e-06
9.06899e-06
1.26239e-05
1.83198e-05
3.07e-05
3.78821e-05
2.45921e-05
1.14581e-05
6.21624e-06
1.01029e-05
2.37814e-05
2.25007e-05
1.39008e-05
1.93754e-05
2.72813e-05
1.53382e-05
1.36407e-05
1.5747e-05
1.47325e-05
8.64307e-06
1.10939e-05
1.10847e-05
1.82206e-05
8.9644e-06
8.74524e-06
2.36056e-05
3.99739e-05
2.10062e-05
1.85508e-05
4.63082e-05
7.72712e-06
1.46679e-05
1.6064e-05
2.19059e-05
1.53346e-05
1.30754e-05
1.84288e-05
3.89687e-05
2.91757e-05
1.81584e-05
1.33415e-05
1.45031e-05
1.71968e-05
2.52501e-05
2.11686e-05
2.15569e-05
1.60933e-05
1.07168e-05
9.77232e-06
8.90493e-06
7.12701e-06
8.31039e-06
1.45259e-05
2.73191e-05
3.79098e-05
4.35559e-05
4.52301e-05
1.02141e-05
8.8226e-06
7.77257e-06
2.26074e-05
2.4171e-05
1.51704e-05
1.81304e-05
2.30417e-05
1.84287e-05
2.01085e-05
1.23373e-05
1.89342e-05
1.21174e-05
1.57662e-05
1.38094e-05
1.77842e-05
8.88669e-06
9.23809e-06
1.95213e-05
3.49224e-05
2.26333e-05
1.85772e-05
3.87505e-05
4.49503e-06
1.67255e-05
1.36773e-05
2.15633e-05
1.49274e-05
1.28052e-05
1.81445e-05
3.12111e-05
2.6395e-05
1.4448e-05
1.40711e-05
1.41018e-05
1.71595e-05
2.55306e-05
2.22197e-05
1.98758e-05
1.38159e-05
8.50899e-06
7.92415e-06
6.70794e-06
5.0032e-06
8.93713e-06
1.74999e-05
3.2522e-05
3.15937e-05
3.30297e-05
4.47966e-05
2.54656e-05
1.11179e-05
5.68952e-06
1.94482e-05
2.53426e-05
1.64529e-05
1.70049e-05
1.9926e-05
2.15935e-05
2.62767e-05
1.94598e-05
2.28807e-05
1.8361e-05
1.98345e-05
2.1145e-05
1.59823e-05
9.01322e-06
9.95578e-06
1.6567e-05
2.65644e-05
2.18396e-05
1.84008e-05
2.65657e-05
5.67715e-06
1.88652e-05
1.16057e-05
2.11105e-05
1.42417e-05
1.22802e-05
1.74234e-05
2.44661e-05
1.91789e-05
8.43678e-06
1.61423e-05
1.3489e-05
1.64766e-05
2.42407e-05
2.21418e-05
1.74006e-05
1.24799e-05
6.70688e-06
6.41058e-06
4.93903e-06
4.79215e-06
1.13331e-05
2.61266e-05
2.90742e-05
2.18518e-05
2.16267e-05
3.14241e-05
4.16237e-05
7.47334e-06
6.69724e-06
1.50652e-05
2.60252e-05
1.81794e-05
1.59835e-05
1.78067e-05
2.38826e-05
3.03856e-05
3.04925e-05
2.65655e-05
2.50004e-05
2.40178e-05
3.55757e-05
1.31573e-05
9.50066e-06
1.08124e-05
1.47893e-05
1.9853e-05
1.91112e-05
1.86407e-05
1.22576e-05
9.24405e-06
2.05598e-05
1.08003e-05
2.04652e-05
1.33813e-05
1.14896e-05
1.49805e-05
2.71424e-05
1.5693e-05
1.22183e-05
1.81349e-05
1.31283e-05
1.54977e-05
2.12736e-05
2.09017e-05
1.80091e-05
1.288e-05
5.77924e-06
5.49699e-06
3.89544e-06
7.21572e-06
1.47706e-05
3.07564e-05
2.30963e-05
1.71272e-05
1.61488e-05
1.65934e-05
4.1362e-05
1.31315e-05
9.83258e-06
1.06424e-05
2.56329e-05
2.0539e-05
1.52855e-05
1.68282e-05
2.4756e-05
3.24699e-05
3.68702e-05
2.62254e-05
3.0126e-05
2.57194e-05
4.25166e-05
1.03129e-05
9.63228e-06
1.14335e-05
1.3851e-05
1.52527e-05
1.54609e-05
2.21165e-05
9.55041e-06
1.3752e-05
2.06559e-05
1.12414e-05
1.95584e-05
1.27635e-05
1.05743e-05
1.31502e-05
2.80535e-05
2.64778e-05
2.16161e-05
1.93811e-05
1.35801e-05
1.48377e-05
1.70821e-05
2.04585e-05
1.9758e-05
1.4283e-05
5.78994e-06
4.88306e-06
3.68755e-06
1.08851e-05
1.73776e-05
2.75066e-05
1.86648e-05
1.61332e-05
1.55878e-05
8.87609e-06
3.37855e-05
2.69354e-05
5.79174e-06
7.85471e-06
2.26195e-05
2.32404e-05
1.52828e-05
1.78314e-05
2.43715e-05
3.24771e-05
3.65928e-05
3.98149e-05
2.88116e-05
4.31792e-05
3.67302e-05
8.0776e-06
7.62903e-06
1.06646e-05
1.33341e-05
1.2934e-05
1.75422e-05
3.06943e-05
1.96582e-05
1.98574e-05
1.87891e-05
1.17509e-05
1.85405e-05
1.27266e-05
9.85287e-06
1.27494e-05
2.50013e-05
2.99235e-05
2.58764e-05
1.9955e-05
1.49421e-05
1.48338e-05
1.31208e-05
2.24593e-05
1.84112e-05
1.52004e-05
6.25698e-06
4.2405e-06
5.49185e-06
1.49921e-05
1.94829e-05
2.67581e-05
1.86329e-05
1.64484e-05
1.62514e-05
1.20296e-05
2.46116e-05
3.14512e-05
8.57008e-06
7.91878e-06
1.69353e-05
2.5675e-05
1.62832e-05
2.199e-05
2.34096e-05
3.09947e-05
3.24845e-05
4.95886e-05
4.69747e-05
5.37247e-05
2.55343e-05
7.87378e-06
7.00826e-06
8.87441e-06
1.24095e-05
1.28923e-05
2.30835e-05
3.91832e-05
2.95598e-05
2.60062e-05
1.43626e-05
1.13828e-05
1.8119e-05
1.34045e-05
9.74473e-06
1.32203e-05
2.38447e-05
2.95594e-05
2.64812e-05
1.98755e-05
1.66481e-05
1.45221e-05
1.07255e-05
2.08951e-05
1.52445e-05
1.50889e-05
6.94767e-06
3.8452e-06
1.08696e-05
1.92075e-05
2.43233e-05
2.51042e-05
1.9952e-05
1.71234e-05
1.68194e-05
1.34188e-05
1.85948e-05
3.17504e-05
1.59949e-05
6.72853e-06
1.12244e-05
2.69953e-05
1.81534e-05
2.92424e-05
2.33264e-05
2.97922e-05
2.89283e-05
3.38294e-05
3.85369e-05
4.35596e-05
1.4523e-05
8.62632e-06
8.18853e-06
8.87735e-06
1.09207e-05
1.33058e-05
2.4044e-05
4.60996e-05
3.77424e-05
2.90904e-05
1.25512e-05
1.25221e-05
1.86845e-05
1.47417e-05
1.04048e-05
1.3924e-05
2.21746e-05
2.72038e-05
2.4172e-05
1.92508e-05
1.73377e-05
1.15855e-05
1.0014e-05
1.28147e-05
1.68397e-05
1.38325e-05
7.97435e-06
4.62673e-06
1.82734e-05
2.24947e-05
2.99145e-05
2.31292e-05
2.0679e-05
1.77438e-05
1.91899e-05
1.31904e-05
1.66723e-05
3.09017e-05
1.81614e-05
5.91064e-06
7.94616e-06
2.52077e-05
1.96351e-05
3.49031e-05
2.56474e-05
2.93299e-05
2.76633e-05
1.97387e-05
2.36888e-05
2.89386e-05
1.14091e-05
9.15637e-06
9.63575e-06
1.04391e-05
1.0667e-05
1.3045e-05
2.02909e-05
4.70687e-05
4.42175e-05
2.78799e-05
1.75996e-05
1.94798e-05
1.85945e-05
1.65128e-05
1.15377e-05
1.43138e-05
1.95591e-05
2.25438e-05
2.04291e-05
1.8032e-05
1.45587e-05
5.87485e-06
1.22768e-05
1.13468e-05
2.21764e-05
1.17556e-05
9.28634e-06
7.52249e-06
2.38994e-05
2.42299e-05
3.0109e-05
2.24553e-05
1.93728e-05
1.79444e-05
2.46296e-05
1.49728e-05
1.81694e-05
3.14311e-05
1.96599e-05
9.35354e-06
6.65055e-06
1.97266e-05
1.94783e-05
3.15349e-05
2.77247e-05
2.88437e-05
2.82941e-05
1.53123e-05
3.30861e-05
1.70508e-05
1.22423e-05
9.67606e-06
1.02156e-05
1.13788e-05
1.12062e-05
1.23843e-05
1.80463e-05
3.84169e-05
4.24811e-05
2.63242e-05
2.12098e-05
2.44019e-05
1.77742e-05
1.81976e-05
1.26328e-05
1.3968e-05
1.66492e-05
1.8117e-05
1.67524e-05
1.36927e-05
7.62604e-06
1.16331e-05
1.56307e-05
2.32806e-05
2.54142e-05
9.65542e-06
1.00938e-05
1.30928e-05
2.66129e-05
2.40208e-05
2.60757e-05
2.15422e-05
1.49617e-05
1.73616e-05
2.84029e-05
1.63005e-05
2.27686e-05
3.19937e-05
2.59468e-05
1.10136e-05
5.15245e-06
1.27394e-05
1.78434e-05
1.97749e-05
2.65552e-05
2.85647e-05
2.96795e-05
1.88288e-05
4.68587e-05
1.69204e-05
1.17815e-05
9.77165e-06
1.00756e-05
1.13865e-05
1.14551e-05
1.18693e-05
1.56727e-05
2.40083e-05
3.52308e-05
2.95589e-05
2.51876e-05
2.26856e-05
1.75984e-05
1.92095e-05
1.32411e-05
1.25758e-05
1.29898e-05
1.38787e-05
1.27874e-05
1.21986e-05
1.64181e-05
2.56644e-05
3.50827e-05
3.31338e-05
1.77635e-05
9.56635e-06
9.25962e-06
2.14148e-05
2.75519e-05
2.18062e-05
2.18989e-05
1.97776e-05
9.37811e-06
1.66068e-05
2.5956e-05
2.40235e-05
2.65909e-05
2.86613e-05
3.55081e-05
1.23965e-05
5.19085e-06
8.07447e-06
1.57712e-05
1.3072e-05
2.55028e-05
2.83632e-05
3.13166e-05
2.86219e-05
3.72986e-05
1.90194e-05
1.08528e-05
1.01107e-05
9.42354e-06
1.10629e-05
1.14794e-05
1.1198e-05
1.33274e-05
1.79338e-05
2.32932e-05
2.51189e-05
2.44314e-05
1.81255e-05
1.79699e-05
1.91933e-05
1.31352e-05
1.0125e-05
1.01741e-05
1.5721e-05
2.10131e-05
3.02297e-05
4.67034e-05
4.83436e-05
3.17112e-05
1.76572e-05
1.36045e-05
1.37404e-05
1.04811e-05
3.00052e-05
3.06333e-05
1.94736e-05
1.7666e-05
1.92084e-05
1.15023e-05
1.83601e-05
2.11362e-05
2.92568e-05
2.78698e-05
1.77923e-05
3.54245e-05
2.09639e-05
8.35498e-06
8.52593e-06
1.51317e-05
1.05813e-05
2.87065e-05
2.80171e-05
3.47392e-05
4.36125e-05
2.13954e-05
1.75797e-05
1.04442e-05
1.02664e-05
8.51818e-06
9.82814e-06
1.0867e-05
1.04305e-05
1.1481e-05
1.34909e-05
1.77041e-05
2.07261e-05
1.89028e-05
1.50282e-05
1.83487e-05
1.78919e-05
1.23388e-05
7.67593e-06
1.1467e-05
2.07109e-05
3.93252e-05
5.50461e-05
4.69044e-05
4.17384e-05
3.84853e-05
3.13579e-05
2.31178e-05
7.57014e-06
1.93434e-05
3.51945e-05
3.54297e-05
1.83124e-05
1.41575e-05
2.31395e-05
1.95638e-05
2.30315e-05
2.13072e-05
3.21235e-05
2.77446e-05
2.15744e-05
1.99885e-05
2.95964e-05
1.0258e-05
1.17434e-05
1.73218e-05
9.4623e-06
3.43257e-05
2.93506e-05
4.28698e-05
6.17389e-05
2.64519e-05
1.68198e-05
1.04466e-05
8.09166e-06
7.75558e-06
8.32016e-06
9.25495e-06
9.46573e-06
1.02493e-05
1.12319e-05
1.37894e-05
1.61764e-05
1.42243e-05
1.40325e-05
1.78893e-05
1.54942e-05
1.12281e-05
7.19615e-06
1.46542e-05
2.72043e-05
4.20518e-05
3.15536e-05
2.77105e-05
2.561e-05
2.38379e-05
1.85612e-05
1.13499e-05
1.43364e-05
2.97673e-05
3.52249e-05
3.66174e-05
1.86034e-05
1.56308e-05
2.99459e-05
2.74675e-05
2.82479e-05
2.70749e-05
3.31671e-05
3.69074e-05
2.82403e-05
2.12792e-05
2.59717e-05
1.51344e-05
1.63393e-05
2.20395e-05
1.5093e-05
4.11782e-05
3.33061e-05
5.71703e-05
6.029e-05
3.2335e-05
1.82224e-05
1.07328e-05
8.51989e-06
6.30314e-06
6.22311e-06
6.91488e-06
7.29057e-06
9.09667e-06
1.11164e-05
1.26907e-05
1.39145e-05
1.37785e-05
1.41627e-05
1.42457e-05
1.28483e-05
1.03826e-05
9.84185e-06
1.91862e-05
2.3278e-05
1.63053e-05
1.21688e-05
8.47434e-06
1.61253e-05
1.89636e-05
1.78889e-05
2.313e-05
3.3087e-05
4.0539e-05
4.01597e-05
3.20828e-05
2.04176e-05
2.06368e-05
2.97292e-05
2.97667e-05
2.93345e-05
2.97059e-05
3.29004e-05
4.83936e-05
3.72673e-05
3.16684e-05
2.61158e-05
2.05616e-05
2.04878e-05
2.62194e-05
2.41868e-05
4.48657e-05
2.86591e-05
6.8622e-05
2.68072e-05
3.09317e-05
1.76445e-05
1.17499e-05
8.77291e-06
4.94203e-06
4.54601e-06
5.03133e-06
5.55927e-06
8.26218e-06
1.19561e-05
1.44401e-05
1.62144e-05
1.63811e-05
1.21326e-05
1.10252e-05
1.25412e-05
1.0452e-05
1.25164e-05
2.10613e-05
1.47324e-05
1.21079e-05
1.42945e-05
1.34225e-05
1.68009e-05
1.89343e-05
2.0704e-05
2.68385e-05
3.84594e-05
4.10487e-05
4.71242e-05
2.88845e-05
2.16296e-05
2.06254e-05
2.44906e-05
2.86965e-05
2.87194e-05
2.94925e-05
3.57861e-05
3.38203e-05
5.62992e-05
4.10089e-05
3.63676e-05
2.89943e-05
2.72887e-05
3.27949e-05
3.49161e-05
5.08535e-05
3.88758e-05
7.93393e-05
3.31253e-05
3.24072e-05
1.75713e-05
1.35036e-05
8.87339e-06
4.40028e-06
3.91517e-06
3.53381e-06
4.67819e-06
9.03198e-06
1.37917e-05
1.75658e-05
1.77892e-05
1.44118e-05
6.41405e-06
1.18808e-05
1.34107e-05
1.08988e-05
1.44647e-05
1.70619e-05
1.49493e-05
1.09423e-05
1.64432e-05
1.89781e-05
1.99863e-05
1.85556e-05
1.92809e-05
3.14173e-05
3.79799e-05
3.97363e-05
4.56597e-05
2.71837e-05
2.14971e-05
1.78856e-05
1.84458e-05
2.52279e-05
2.71975e-05
4.41998e-05
3.92414e-05
4.31656e-05
6.40885e-05
6.44722e-05
5.0519e-05
4.38535e-05
4.22233e-05
4.40627e-05
4.64998e-05
3.54294e-05
6.26021e-05
6.20074e-05
4.03118e-05
3.17789e-05
1.86198e-05
1.67301e-05
8.80363e-06
5.74586e-06
4.51079e-06
4.07938e-06
3.59186e-06
8.97902e-06
1.35005e-05
1.44461e-05
1.15427e-05
6.47147e-06
6.66871e-06
1.33377e-05
1.45762e-05
1.12582e-05
1.62599e-05
1.23201e-05
1.3007e-05
1.62002e-05
1.97383e-05
1.9865e-05
1.76691e-05
1.81977e-05
2.09354e-05
3.49698e-05
3.29373e-05
4.42253e-05
3.8711e-05
2.51277e-05
1.98323e-05
1.49275e-05
1.43726e-05
2.05262e-05
2.10991e-05
3.65615e-05
2.43688e-05
5.2554e-05
7.02135e-05
6.27316e-05
7.0481e-05
6.39808e-05
5.03563e-05
5.20625e-05
4.26121e-05
4.38767e-05
7.48667e-05
2.11408e-05
3.59597e-05
2.88829e-05
1.86556e-05
2.2877e-05
7.90118e-06
7.5083e-06
5.43259e-06
5.89339e-06
5.0098e-06
6.76633e-06
9.96232e-06
1.00775e-05
8.47608e-06
6.9875e-06
8.9133e-06
1.50974e-05
1.49932e-05
1.1752e-05
1.9616e-05
1.52245e-05
1.28706e-05
1.56117e-05
1.99092e-05
1.73996e-05
1.24012e-05
1.32064e-05
2.3566e-05
3.88673e-05
3.23583e-05
4.36047e-05
3.21439e-05
2.20976e-05
1.73677e-05
1.38686e-05
1.40175e-05
1.65936e-05
1.65604e-05
2.08732e-05
4.04648e-05
3.01458e-05
4.67204e-05
6.71059e-05
6.50801e-05
6.11524e-05
5.70036e-05
4.02708e-05
4.07039e-05
5.73473e-05
5.70368e-05
3.60976e-05
3.11409e-05
2.73124e-05
1.5625e-05
3.17274e-05
6.33605e-06
8.03106e-06
5.89428e-06
6.63539e-06
6.35032e-06
7.73869e-06
1.1249e-05
1.17696e-05
8.70137e-06
5.47802e-06
9.08405e-06
1.82531e-05
1.38333e-05
1.38847e-05
2.46221e-05
1.67174e-05
1.11773e-05
1.27606e-05
1.51278e-05
8.83866e-06
6.98679e-06
1.10221e-05
2.19284e-05
4.01095e-05
3.32387e-05
3.73316e-05
2.63288e-05
1.85474e-05
1.52103e-05
1.41196e-05
1.61425e-05
1.65182e-05
1.58833e-05
1.63769e-05
2.03099e-05
2.27782e-05
2.8869e-05
3.92013e-05
4.86918e-05
4.92143e-05
4.34443e-05
3.90366e-05
4.35318e-05
5.25203e-05
2.48455e-05
3.238e-05
2.57578e-05
2.84692e-05
2.13389e-05
2.72313e-05
1.16289e-05
9.57461e-06
5.47701e-06
6.49664e-06
5.49279e-06
7.59571e-06
1.1244e-05
1.03907e-05
4.87988e-06
3.99219e-06
1.05921e-05
2.11829e-05
1.18038e-05
1.98109e-05
2.85826e-05
1.76658e-05
1.22714e-05
9.97776e-06
7.15135e-06
2.45649e-06
7.51616e-06
1.28951e-05
1.84553e-05
3.77241e-05
3.29294e-05
3.05902e-05
2.11832e-05
1.56924e-05
1.45445e-05
1.53433e-05
1.88782e-05
1.91518e-05
1.55665e-05
1.84978e-05
1.94981e-05
1.84419e-05
2.2822e-05
2.75216e-05
2.94096e-05
3.03297e-05
3.3879e-05
3.2363e-05
3.29042e-05
3.24438e-05
4.37664e-05
4.108e-05
2.55628e-05
2.43529e-05
3.01912e-05
2.01636e-05
3.03893e-05
1.47342e-05
5.13362e-06
6.85147e-06
8.17164e-06
1.22669e-05
1.70398e-05
1.55817e-05
8.24401e-06
6.26961e-06
1.43802e-05
2.06588e-05
1.34653e-05
2.82842e-05
2.79053e-05
2.00944e-05
1.00357e-05
5.88739e-06
6.25648e-06
4.81019e-06
8.78688e-06
1.53201e-05
1.33103e-05
3.27003e-05
3.18428e-05
2.57925e-05
1.8045e-05
1.51721e-05
1.58457e-05
1.76126e-05
2.09148e-05
2.04446e-05
1.74745e-05
1.91263e-05
2.07844e-05
2.05013e-05
1.82512e-05
1.77791e-05
2.11544e-05
2.3842e-05
2.12853e-05
2.32002e-05
3.4682e-05
4.89369e-05
4.95964e-05
3.27313e-05
2.41359e-05
1.55963e-05
1.82761e-05
2.06588e-05
4.61561e-05
2.45272e-05
1.13266e-05
7.55077e-06
7.90355e-06
1.07156e-05
1.7533e-05
2.28583e-05
1.70765e-05
9.3371e-06
1.8764e-05
1.18315e-05
2.28406e-05
3.35775e-05
3.01261e-05
1.28727e-05
5.00651e-06
7.30419e-06
8.21711e-06
7.24332e-06
9.09874e-06
1.59982e-05
6.32425e-06
2.30362e-05
2.769e-05
2.28977e-05
1.80037e-05
1.72387e-05
1.89728e-05
2.0371e-05
2.19056e-05
2.06521e-05
1.80944e-05
1.75356e-05
1.92325e-05
2.17559e-05
2.06598e-05
2.02558e-05
1.84209e-05
1.61309e-05
1.41074e-05
1.35517e-05
2.31486e-05
2.8298e-05
1.28618e-05
1.29679e-05
1.46397e-05
1.37237e-05
1.02303e-05
1.03374e-05
4.28026e-05
3.17832e-05
1.69958e-05
1.3373e-05
9.56521e-06
5.72432e-06
7.99287e-06
1.17347e-05
1.89034e-05
1.22266e-05
1.77807e-05
1.82472e-05
2.70175e-05
3.76955e-05
2.10275e-05
5.33632e-06
7.17913e-06
9.33553e-06
1.0154e-05
8.77133e-06
9.4677e-06
1.48878e-05
8.21928e-06
1.4758e-05
1.91698e-05
2.00162e-05
1.84305e-05
1.94717e-05
2.13567e-05
2.21707e-05
2.26753e-05
2.16515e-05
1.92153e-05
1.6688e-05
1.73842e-05
1.89383e-05
2.15246e-05
2.21e-05
2.27884e-05
2.21899e-05
1.92744e-05
1.56567e-05
1.58723e-05
1.64853e-05
1.12861e-05
1.31207e-05
1.27264e-05
1.19637e-05
1.08096e-05
5.85433e-06
3.17517e-05
3.3518e-05
1.67997e-05
1.61474e-05
1.83205e-05
1.62716e-05
1.51737e-05
1.95713e-05
2.66916e-05
2.72561e-05
2.74026e-05
2.48159e-05
3.44646e-05
3.654e-05
9.40455e-06
1.03034e-05
1.03173e-05
1.02646e-05
1.16755e-05
1.09326e-05
9.62454e-06
1.40463e-05
9.26188e-06
1.27933e-05
1.49123e-05
1.77384e-05
1.9273e-05
2.07477e-05
2.20016e-05
2.26033e-05
2.19534e-05
2.16802e-05
2.00899e-05
1.70991e-05
1.5745e-05
1.70282e-05
1.93339e-05
2.17758e-05
2.28694e-05
2.39057e-05
2.55398e-05
2.55601e-05
2.22768e-05
1.80534e-05
1.51306e-05
1.3517e-05
1.05101e-05
7.94416e-06
8.02098e-06
7.66515e-06
1.99123e-05
2.6112e-05
1.22993e-05
9.15183e-06
1.06109e-05
1.15062e-05
1.14667e-05
1.37102e-05
2.14355e-05
3.66202e-05
4.25623e-05
3.49759e-05
4.06792e-05
1.43274e-05
2.15086e-05
1.71317e-05
1.26604e-05
1.13421e-05
1.33313e-05
1.31893e-05
9.23564e-06
1.34865e-05
1.06583e-05
1.37949e-05
1.54022e-05
1.74939e-05
1.75837e-05
1.86758e-05
2.01433e-05
2.14066e-05
2.02278e-05
2.04917e-05
1.94577e-05
1.74241e-05
1.55916e-05
1.58323e-05
1.80109e-05
2.03103e-05
2.24244e-05
2.24542e-05
2.27999e-05
2.48851e-05
2.58284e-05
2.36551e-05
2.01366e-05
1.61627e-05
1.13892e-05
6.0998e-06
5.09201e-06
6.65241e-06
9.45216e-06
1.78689e-05
1.15874e-05
7.635e-06
5.27022e-06
2.53703e-06
5.15143e-06
8.2232e-06
1.43104e-05
2.47557e-05
2.64707e-05
2.50182e-05
1.98854e-05
3.14639e-05
2.79468e-05
1.48224e-05
1.30738e-05
1.22051e-05
1.60799e-05
1.18771e-05
8.00773e-06
1.56929e-05
1.36433e-05
1.51231e-05
1.58719e-05
1.63961e-05
1.57226e-05
1.4878e-05
1.62293e-05
1.85958e-05
1.63862e-05
1.76713e-05
1.75985e-05
1.68895e-05
1.57175e-05
1.52717e-05
1.59072e-05
1.701e-05
1.91969e-05
2.10661e-05
2.1323e-05
1.97251e-05
1.78014e-05
1.56923e-05
1.35907e-05
1.1922e-05
1.00506e-05
7.29199e-06
5.91078e-06
7.36131e-06
5.8797e-06
1.51964e-05
1.50533e-05
1.05843e-05
1.21865e-05
1.62791e-05
1.58433e-05
1.81696e-05
2.83265e-05
1.80541e-05
1.415e-05
1.49004e-05
1.54749e-05
3.28918e-05
1.33121e-05
1.30091e-05
2.21147e-05
2.40164e-05
3.33368e-05
1.83782e-05
6.96786e-06
2.00729e-05
1.68476e-05
1.56248e-05
1.6684e-05
1.80311e-05
1.79236e-05
1.48948e-05
1.19192e-05
1.35077e-05
1.32364e-05
1.5012e-05
1.45191e-05
1.42461e-05
1.42871e-05
1.43436e-05
1.42933e-05
1.45918e-05
1.5305e-05
1.67106e-05
1.85975e-05
1.8763e-05
1.62863e-05
1.23373e-05
8.45791e-06
6.39493e-06
6.477e-06
6.18626e-06
5.85432e-06
5.75287e-06
6.96597e-06
1.34978e-05
1.27599e-05
1.37262e-05
2.43499e-05
1.48305e-05
9.33989e-06
6.62e-06
1.5807e-05
4.28817e-05
1.64303e-05
6.88758e-06
1.9135e-05
2.42858e-05
1.60988e-05
1.362e-05
2.93221e-05
4.19462e-05
3.58831e-05
2.96169e-05
1.91426e-05
1.95846e-05
1.67195e-05
1.26565e-05
1.38948e-05
1.48918e-05
1.40234e-05
1.17382e-05
9.60335e-06
1.00044e-05
1.23495e-05
1.34134e-05
1.19387e-05
1.05131e-05
1.03157e-05
1.10158e-05
1.14513e-05
1.17833e-05
1.21233e-05
1.2414e-05
1.31664e-05
1.47464e-05
1.49658e-05
1.24695e-05
8.36056e-06
4.98636e-06
4.09362e-06
4.24146e-06
5.17455e-06
5.71445e-06
8.08949e-06
1.17988e-05
1.21596e-05
1.76482e-05
2.46101e-05
1.7328e-05
1.97222e-05
1.50396e-05
1.09686e-05
4.08505e-05
2.28355e-05
7.61411e-06
1.03591e-05
2.88345e-05
3.40048e-05
2.98042e-05
1.35773e-05
1.3823e-05
1.49718e-05
1.55691e-05
2.89832e-05
2.59239e-05
1.3983e-05
6.27388e-06
7.93754e-06
8.32033e-06
9.48764e-06
9.94385e-06
1.07165e-05
1.0659e-05
2.39534e-05
3.43804e-05
3.1178e-05
1.39974e-05
9.76016e-06
7.53913e-06
6.06803e-06
6.7356e-06
8.86506e-06
9.90902e-06
9.79094e-06
9.60266e-06
1.04225e-05
1.05755e-05
9.41575e-06
8.87653e-06
8.93196e-06
7.41896e-06
7.43069e-06
8.95689e-06
8.4871e-06
1.20516e-05
1.96388e-05
2.24209e-05
1.79233e-05
2.40691e-05
2.12428e-05
1.97609e-05
1.32459e-05
3.5577e-05
2.88012e-05
1.08864e-05
9.94661e-06
1.90494e-05
4.22219e-05
4.35851e-05
2.34607e-05
1.50175e-05
1.99463e-05
2.60199e-05
2.04885e-05
1.84437e-05
1.34919e-05
7.0901e-06
2.93202e-06
4.55391e-06
7.27387e-06
9.87232e-06
1.34724e-05
1.7632e-05
4.10197e-05
4.8114e-05
7.59411e-05
8.85443e-05
1.84278e-05
1.24377e-05
9.14394e-06
6.44769e-06
6.23958e-06
7.51948e-06
7.21646e-06
6.10496e-06
6.00913e-06
6.91022e-06
9.95932e-06
1.56721e-05
2.07344e-05
1.98815e-05
1.52138e-05
1.26747e-05
8.45175e-06
1.69324e-05
3.01841e-05
2.63617e-05
1.84371e-05
2.18125e-05
1.10879e-05
1.61112e-05
2.17333e-05
3.72116e-05
3.03593e-05
1.44827e-05
1.81014e-05
7.21161e-05
4.4323e-05
2.63754e-05
1.69489e-05
1.51345e-05
1.70645e-05
2.46523e-05
3.75806e-05
3.79701e-05
3.01148e-05
1.68182e-05
1.20646e-05
8.15693e-06
9.2539e-06
1.3839e-05
1.83927e-05
3.04565e-05
2.04814e-05
7.43706e-05
3.60436e-05
5.49133e-05
5.66686e-05
1.79918e-05
2.51026e-05
2.801e-05
2.42821e-05
1.48771e-05
1.00634e-05
5.83252e-06
6.45228e-06
7.92735e-06
1.26244e-05
2.5559e-05
4.91258e-05
3.80576e-05
2.22788e-05
1.36999e-05
1.89409e-05
2.00776e-05
2.27412e-05
1.30738e-05
1.12237e-05
1.33915e-05
1.27013e-05
2.18306e-05
3.65063e-05
3.66043e-05
3.94619e-05
1.55644e-05
3.20132e-05
8.46109e-05
3.98274e-05
6.11889e-05
4.99159e-05
2.7154e-05
2.7321e-05
2.70665e-05
3.22836e-05
5.06046e-05
7.62297e-05
8.89802e-05
4.38898e-05
1.80841e-05
2.02969e-05
2.03104e-05
2.06771e-05
2.24991e-05
7.42963e-05
4.29753e-05
8.2136e-05
2.84139e-05
5.69215e-05
8.649e-05
6.51765e-05
3.73837e-05
2.97409e-05
3.71408e-05
3.40322e-05
2.73387e-05
1.59294e-05
1.25397e-05
2.24903e-05
3.10833e-05
1.58949e-05
6.30692e-05
0.000100803
1.99904e-05
1.25896e-05
1.5143e-05
3.33797e-05
3.61205e-05
3.29863e-05
2.69543e-05
2.27834e-05
5.05138e-05
4.72498e-05
5.3453e-05
4.54495e-05
4.50828e-05
4.7026e-05
1.74237e-05
1.98635e-05
5.43857e-05
3.89005e-05
4.51398e-05
6.02035e-05
3.93015e-05
3.02894e-05
3.34193e-05
5.15383e-05
3.50297e-05
6.52511e-05
8.1767e-05
7.34294e-05
4.32085e-05
3.11141e-05
4.46004e-05
8.75352e-05
6.69936e-05
6.58265e-05
0.000115229
9.79255e-05
8.37898e-05
9.73661e-05
0.00010621
0.000111418
0.000118908
0.000132263
0.000139502
0.000140563
0.000129922
0.000113159
9.98392e-05
0.000104867
9.47778e-05
0.00010043
0.000187037
0.000188915
0.000183324
0.000187322
0.000188068
0.000185971
0.000181269
0.000146013
0.000104097
0.00012163
0.00012835
0.000107527
0.000113028
0.000116041
0.000103876
0.000139779
0.000117905
7.93821e-05
7.48759e-05
8.82153e-05
0.000108499
0.000123357
0.000133995
0.000131359
0.000118825
8.84736e-05
0.000103715
0.0001164
0.000123066
0.000115675
0.000104727