/*--------------------------------*- C++ -*----------------------------------*\
| =========                 |                                                 |
| \\      /  F ield         | OpenFOAM: The Open Source CFD Toolbox           |
|  \\    /   O peration     | Version:  4.x                                   |
|   \\  /    A nd           | Web:      www.OpenFOAM.org                      |
|    \\/     M anipulation  |                                                 |
\*---------------------------------------------------------------------------*/
FoamFile
{
    version     2.0;
    format      ascii;
    class       volScalarField;
    location    "1000";
    object      p;
}
// * * * * * * * * * * * * * * * * * * * * * * * * * * * * * * * * * * * * * //

dimensions      [0 2 -2 0 0 0 0];

internalField   nonuniform List<scalar> 
237650
(
-3.5217
-3.51009
-3.51608
-3.53904
-3.56767
-3.58856
-3.59633
-3.59052
-3.57421
-3.56644
-3.56847
-3.57535
-3.55708
-3.56519
-3.57403
-3.58248
-3.60762
-3.63346
-3.63924
-3.61695
-3.56872
-3.51838
-3.5
-3.56845
-3.5632
-3.53988
-3.52249
-3.51009
-3.53031
-3.54527
-3.5356
-3.50158
-3.4938
-3.52538
-3.58049
-3.64086
-3.66092
-3.68453
-3.72268
-3.71675
-3.71967
-3.72575
-3.72798
-3.7127
-3.67906
-3.64115
-3.60912
-3.58572
-3.56631
-3.54381
-3.52143
-3.50979
-3.51569
-3.5386
-3.56723
-3.58816
-3.59603
-3.5904
-3.5742
-3.56627
-3.56848
-3.57524
-3.55749
-3.56488
-3.57383
-3.58246
-3.60774
-3.63353
-3.63918
-3.6172
-3.56916
-3.51893
-3.50002
-3.56956
-3.56262
-3.53908
-3.52227
-3.51003
-3.52998
-3.54461
-3.53543
-3.50136
-3.49347
-3.52521
-3.58115
-3.64241
-3.6608
-3.68362
-3.72261
-3.71653
-3.71958
-3.72557
-3.72795
-3.71269
-3.67891
-3.64087
-3.60875
-3.58524
-3.5659
-3.54351
-3.52089
-3.50921
-3.51517
-3.53825
-3.56711
-3.58815
-3.59605
-3.59045
-3.574
-3.56592
-3.56822
-3.57531
-3.55713
-3.56468
-3.57367
-3.58224
-3.60764
-3.63355
-3.63934
-3.61747
-3.56914
-3.51912
-3.50003
-3.57252
-3.56242
-3.53859
-3.52204
-3.50942
-3.52975
-3.54466
-3.53574
-3.50081
-3.49272
-3.52499
-3.58202
-3.6449
-3.66098
-3.68342
-3.72312
-3.71574
-3.71895
-3.725
-3.7278
-3.71281
-3.67882
-3.64051
-3.6082
-3.58463
-3.56539
-3.54303
-3.5193
-3.50778
-3.51419
-3.538
-3.56752
-3.5888
-3.59655
-3.5907
-3.5734
-3.56488
-3.56726
-3.57498
-3.555
-3.56462
-3.57362
-3.58203
-3.60719
-3.63313
-3.63966
-3.61808
-3.56885
-3.51985
-3.50205
-3.58208
-3.56238
-3.53833
-3.52164
-3.50774
-3.52949
-3.54631
-3.53713
-3.49941
-3.49079
-3.52434
-3.58285
-3.64982
-3.66192
-3.68455
-3.72347
-3.71277
-3.7165
-3.72299
-3.72683
-3.71268
-3.67842
-3.63957
-3.60693
-3.58328
-3.56413
-3.54159
-3.51634
-3.50555
-3.51325
-3.53855
-3.56913
-3.59059
-3.59777
-3.5911
-3.5723
-3.56289
-3.56523
-3.57288
-3.55047
-3.5652
-3.57433
-3.58231
-3.60632
-3.63169
-3.64009
-3.61953
-3.56902
-3.52214
-3.5078
-3.60074
-3.56204
-3.53876
-3.52129
-3.50515
-3.52945
-3.55096
-3.53994
-3.49751
-3.48775
-3.52248
-3.58138
-3.65445
-3.66422
-3.68814
-3.72158
-3.70717
-3.71144
-3.71864
-3.72382
-3.71112
-3.6769
-3.63755
-3.60464
-3.58092
-3.56152
-3.53855
-3.51187
-3.5027
-3.5128
-3.54061
-3.57262
-3.59391
-3.59976
-3.59147
-3.5706
-3.55962
-3.5616
-3.56771
-3.5438
-3.56729
-3.57638
-3.58301
-3.60499
-3.62907
-3.64091
-3.62272
-3.57022
-3.52612
-3.51696
-3.62863
-3.56129
-3.53959
-3.52078
-3.50183
-3.5301
-3.55965
-3.54461
-3.4959
-3.48391
-3.51843
-3.57619
-3.65704
-3.66878
-3.69454
-3.71787
-3.70016
-3.70377
-3.71117
-3.71734
-3.70654
-3.67295
-3.63349
-3.60058
-3.5767
-3.55662
-3.53333
-3.50637
-3.49957
-3.51312
-3.54473
-3.57879
-3.5993
-3.6026
-3.59158
-3.56822
-3.55509
-3.55605
-3.5591
-3.53625
-3.57195
-3.57979
-3.58389
-3.60324
-3.62547
-3.64288
-3.62782
-3.57232
-3.53105
-3.52819
-3.66322
-3.5601
-3.54033
-3.51952
-3.49797
-3.53238
-3.57293
-3.55187
-3.49538
-3.48007
-3.51228
-3.5676
-3.65725
-3.6755
-3.70319
-3.71469
-3.69284
-3.69412
-3.70057
-3.70683
-3.69809
-3.66589
-3.62698
-3.59443
-3.57028
-3.54942
-3.52634
-3.50213
-3.49723
-3.51369
-3.54884
-3.58515
-3.60476
-3.60531
-3.59146
-3.56606
-3.55115
-3.55102
-3.55126
-3.53114
-3.57776
-3.58329
-3.58485
-3.60184
-3.62248
-3.64525
-3.63241
-3.57426
-3.53475
-3.53645
-3.6871
-3.55827
-3.54054
-3.5178
-3.49481
-3.53589
-3.58534
-3.55897
-3.49584
-3.47763
-3.50716
-3.56014
-3.65609
-3.68096
-3.71076
-3.71313
-3.68739
-3.68627
-3.69145
-3.69733
-3.69014
-3.65935
-3.62126
-3.58913
-3.56478
-3.54346
-3.52081
-3.49593
-3.49379
-3.51462
-3.55563
-3.5966
-3.61516
-3.6105
-3.59122
-3.56247
-3.54484
-3.54307
-3.53907
-3.52543
-3.58931
-3.59117
-3.58757
-3.60019
-3.61814
-3.6497
-3.63974
-3.57752
-3.53971
-3.54659
-3.70849
-3.55333
-3.5401
-3.51402
-3.48956
-3.54502
-3.60664
-3.57194
-3.49782
-3.47485
-3.49995
-3.54845
-3.6518
-3.6885
-3.72402
-3.7115
-3.67924
-3.67409
-3.6772
-3.68265
-3.67791
-3.64943
-3.6127
-3.58122
-3.55663
-3.53487
-3.51288
-3.48951
-3.49016
-3.51572
-3.56335
-3.61039
-3.62891
-3.618
-3.59153
-3.55854
-3.53792
-3.5348
-3.5268
-3.522
-3.60644
-3.60481
-3.59314
-3.59977
-3.61433
-3.65433
-3.64726
-3.58124
-3.5441
-3.5534
-3.70578
-3.54432
-3.53846
-3.50943
-3.48352
-3.56038
-3.63247
-3.58854
-3.50132
-3.47291
-3.49351
-3.53523
-3.6413
-3.6951
-3.73906
-3.70971
-3.67026
-3.66071
-3.66165
-3.6677
-3.66589
-3.63971
-3.60417
-3.57323
-3.54841
-3.52633
-3.50489
-3.48286
-3.4864
-3.51718
-3.57218
-3.62613
-3.64584
-3.62862
-3.59339
-3.55488
-3.53091
-3.52676
-3.51565
-3.52173
-3.63006
-3.62565
-3.60232
-3.6016
-3.61178
-3.65733
-3.65303
-3.58498
-3.54765
-3.55608
-3.6761
-3.5303
-3.53514
-3.50614
-3.47853
-3.58187
-3.66227
-3.60839
-3.50609
-3.47189
-3.48832
-3.52101
-3.62121
-3.70187
-3.75385
-3.70684
-3.66041
-3.64653
-3.64517
-3.65337
-3.65517
-3.63085
-3.596
-3.56537
-3.54029
-3.5179
-3.49686
-3.47597
-3.48255
-3.5192
-3.58261
-3.64405
-3.66524
-3.64277
-3.59785
-3.55221
-3.52442
-3.51929
-3.5069
-3.52583
-3.65914
-3.65264
-3.61477
-3.60643
-3.61053
-3.65662
-3.65463
-3.58812
-3.55009
-3.55479
-3.63073
-3.51215
-3.5298
-3.50672
-3.47811
-3.60825
-3.69473
-3.63074
-3.51177
-3.47175
-3.48441
-3.5075
-3.59345
-3.70706
-3.76517
-3.70194
-3.64978
-3.63211
-3.62837
-3.64015
-3.64639
-3.62312
-3.5883
-3.55773
-3.53228
-3.50955
-3.48873
-3.46883
-3.47865
-3.52215
-3.59529
-3.66507
-3.6868
-3.65964
-3.60586
-3.55127
-3.51908
-3.51282
-3.50165
-3.53474
-3.69038
-3.6824
-3.62912
-3.61444
-3.60989
-3.65075
-3.65067
-3.58996
-3.55121
-3.55032
-3.58585
-3.49378
-3.52355
-3.5132
-3.48597
-3.6383
-3.72804
-3.65419
-3.518
-3.4723
-3.48168
-3.4967
-3.56633
-3.70865
-3.7687
-3.69419
-3.63863
-3.6181
-3.61222
-3.62846
-3.63992
-3.61661
-3.58113
-3.55033
-3.52442
-3.50128
-3.48047
-3.46136
-3.47484
-3.52651
-3.61082
-3.69053
-3.71131
-3.67879
-3.61767
-3.55295
-3.51559
-3.50787
-3.50029
-3.54757
-3.71836
-3.70961
-3.64271
-3.62472
-3.60831
-3.6395
-3.64155
-3.58992
-3.55085
-3.5436
-3.55014
-3.47996
-3.51854
-3.52575
-3.50328
-3.67033
-3.76029
-3.67642
-3.52424
-3.47326
-3.47995
-3.4893
-3.5467
-3.70268
-3.76059
-3.68293
-3.62725
-3.60513
-3.59781
-3.61863
-3.63579
-3.61111
-3.57441
-3.54316
-3.5167
-3.49305
-3.47202
-3.4535
-3.47144
-3.53254
-3.62897
-3.72142
-3.74024
-3.69938
-3.63283
-3.55818
-3.51465
-3.50495
-3.50241
-3.56295
-3.73757
-3.7302
-3.65216
-3.63468
-3.60471
-3.62397
-3.62925
-3.58768
-3.54894
-3.53548
-3.52419
-3.47273
-3.5157
-3.54299
-3.52903
-3.70235
-3.78946
-3.69417
-3.52965
-3.47429
-3.47893
-3.4844
-3.5345
-3.6862
-3.73976
-3.66794
-3.61586
-3.5937
-3.58605
-3.61085
-3.6334
-3.60605
-3.56798
-3.53617
-3.50907
-3.48478
-3.46324
-3.44533
-3.46887
-3.53978
-3.64748
-3.75628
-3.77467
-3.72184
-3.65043
-3.56768
-3.51691
-3.50439
-3.5072
-3.57795
-3.74501
-3.74152
-3.65521
-3.64102
-3.59898
-3.60673
-3.61648
-3.58323
-3.54546
-3.5266
-3.50571
-3.47039
-3.51378
-3.56217
-3.55854
-3.73158
-3.81334
-3.70424
-3.53318
-3.47505
-3.47819
-3.4805
-3.52452
-3.65875
-3.7082
-3.64941
-3.60459
-3.58408
-3.57751
-3.60488
-3.63109
-3.60028
-3.56156
-3.52924
-3.50143
-3.4763
-3.454
-3.43717
-3.46786
-3.54785
-3.66481
-3.78957
-3.81409
-3.74685
-3.66966
-3.58162
-3.52277
-3.5063
-3.51366
-3.59058
-3.74147
-3.74163
-3.65109
-3.64062
-3.59191
-3.59076
-3.60537
-3.57673
-3.5405
-3.51739
-3.49219
-3.46916
-3.51055
-3.57797
-3.58454
-3.75476
-3.8292
-3.70465
-3.53381
-3.47516
-3.47718
-3.47661
-3.5122
-3.62315
-3.66965
-3.62828
-3.59339
-3.5762
-3.57214
-3.59991
-3.62596
-3.59218
-3.55482
-3.52226
-3.4936
-3.46737
-3.44417
-3.42965
-3.46934
-3.5569
-3.68114
-3.8169
-3.85316
-3.77439
-3.69015
-3.59947
-3.53222
-3.51057
-3.52085
-3.59965
-3.73031
-3.73153
-3.64107
-3.63158
-3.58485
-3.57866
-3.59558
-3.56844
-3.53418
-3.50817
-3.48163
-3.46636
-3.5042
-3.58279
-3.601
-3.76839
-3.83416
-3.69502
-3.53095
-3.47419
-3.47533
-3.47241
-3.49742
-3.58392
-3.62855
-3.6059
-3.58217
-3.56968
-3.56916
-3.5945
-3.61552
-3.58071
-3.54748
-3.51504
-3.48533
-3.4577
-3.43396
-3.42402
-3.47341
-3.56687
-3.69651
-3.83659
-3.88465
-3.80275
-3.71198
-3.62013
-3.54516
-3.51696
-3.52793
-3.6046
-3.71552
-3.71517
-3.63015
-3.61475
-3.58014
-3.57313
-3.58473
-3.55868
-3.52678
-3.49918
-3.47268
-3.46108
-3.49254
-3.56849
-3.60243
-3.76897
-3.82478
-3.67601
-3.52428
-3.47166
-3.47214
-3.46776
-3.4831
-3.54625
-3.58924
-3.58374
-3.57094
-3.56403
-3.56704
-3.58719
-3.59976
-3.56697
-3.53946
-3.50737
-3.47629
-3.44711
-3.424
-3.42188
-3.4795
-3.57727
-3.71106
-3.84978
-3.90395
-3.82812
-3.73499
-3.6422
-3.56127
-3.52511
-3.53436
-3.60563
-3.70021
-3.69748
-3.62235
-3.59804
-3.58096
-3.57334
-3.57185
-3.54767
-3.51855
-3.49062
-3.46463
-3.45361
-3.47451
-3.53166
-3.58816
-3.75401
-3.79721
-3.64859
-3.51368
-3.46721
-3.46726
-3.46238
-3.47134
-3.51537
-3.55539
-3.56318
-3.56
-3.55889
-3.56425
-3.57789
-3.58124
-3.55328
-3.5309
-3.49896
-3.46606
-3.43579
-3.41522
-3.42395
-3.48699
-3.58765
-3.72563
-3.85997
-3.91196
-3.8475
-3.75794
-3.66449
-3.57959
-3.53454
-3.53987
-3.60286
-3.6858
-3.68253
-3.61874
-3.59431
-3.58788
-3.57099
-3.55782
-3.53558
-3.50927
-3.48229
-3.45721
-3.44481
-3.45239
-3.48138
-3.55876
-3.72293
-3.75059
-3.61437
-3.49985
-3.46062
-3.46058
-3.45602
-3.46192
-3.49298
-3.5289
-3.54534
-3.55006
-3.55424
-3.56
-3.56783
-3.56368
-3.54122
-3.52201
-3.48944
-3.45457
-3.42455
-3.40853
-3.4303
-3.49554
-3.59786
-3.7413
-3.87081
-3.9143
-3.86153
-3.7786
-3.68625
-3.59879
-3.5448
-3.54427
-3.59636
-3.67236
-3.67181
-3.61819
-3.60269
-3.59655
-3.56421
-3.54305
-3.52267
-3.49893
-3.47369
-3.45021
-3.43581
-3.43147
-3.43391
-3.52097
-3.67748
-3.68935
-3.57574
-3.4839
-3.45203
-3.4523
-3.44861
-3.45367
-3.4775
-3.50959
-3.53092
-3.54196
-3.54987
-3.55445
-3.55809
-3.54933
-3.53131
-3.51293
-3.4784
-3.4419
-3.41472
-3.40508
-3.44088
-3.50516
-3.60768
-3.75791
-3.88331
-3.91744
-3.87209
-3.79554
-3.70673
-3.61713
-3.55539
-3.54712
-3.58597
-3.65813
-3.66417
-3.61891
-3.6133
-3.60141
-3.5533
-3.52745
-3.50918
-3.4879
-3.46479
-3.4434
-3.42774
-3.41591
-3.40519
-3.48328
-3.6195
-3.62223
-3.53611
-3.46723
-3.44203
-3.44288
-3.44044
-3.44567
-3.46601
-3.49554
-3.51995
-3.53578
-3.54456
-3.54824
-3.54945
-3.53895
-3.52357
-3.50362
-3.46556
-3.4287
-3.40747
-3.40596
-3.45538
-3.5155
-3.61636
-3.7725
-3.89429
-3.9262
-3.88302
-3.80974
-3.72465
-3.6333
-3.56508
-3.54752
-3.5722
-3.6399
-3.65624
-3.61974
-3.62175
-3.59732
-3.53801
-3.51141
-3.49538
-3.47673
-3.45617
-3.43703
-3.42134
-3.40664
-3.39566
-3.45422
-3.55575
-3.55913
-3.50024
-3.4513
-3.4316
-3.433
-3.43199
-3.43759
-3.45617
-3.48447
-3.51128
-3.52911
-3.53757
-3.54257
-3.54285
-3.53236
-3.51797
-3.49372
-3.451
-3.41599
-3.40317
-3.4113
-3.47242
-3.52477
-3.62199
-3.77989
-3.8997
-3.94387
-3.90097
-3.82326
-3.73865
-3.64601
-3.57178
-3.54399
-3.55496
-3.61487
-3.6438
-3.62008
-3.6267
-3.58368
-3.51983
-3.49528
-3.4815
-3.46576
-3.44829
-3.43165
-3.41693
-3.40258
-3.39516
-3.43474
-3.50077
-3.50715
-3.47161
-3.43729
-3.42181
-3.42339
-3.42382
-3.42951
-3.44655
-3.4739
-3.50172
-3.52056
-3.53087
-3.53831
-3.53839
-3.52899
-3.51425
-3.48219
-3.43535
-3.40481
-3.40141
-3.4197
-3.48759
-3.52936
-3.62238
-3.776
-3.90059
-3.9738
-3.93517
-3.83985
-3.74832
-3.65412
-3.5735
-3.53471
-3.53374
-3.58152
-3.62375
-3.62021
-3.62667
-3.56166
-3.50042
-3.47935
-3.46775
-3.45519
-3.44131
-3.42761
-3.41459
-3.40211
-3.39748
-3.42231
-3.46238
-3.47023
-3.45034
-3.42611
-3.41355
-3.41468
-3.41623
-3.42154
-3.43652
-3.46298
-3.49256
-3.51348
-3.52401
-3.53248
-3.53506
-3.52877
-3.51027
-3.4677
-3.42002
-3.39606
-3.40143
-3.42858
-3.4932
-3.52619
-3.61548
-3.76064
-3.89992
-4.0131
-3.98777
-3.86641
-3.75465
-3.65616
-3.56889
-3.51877
-3.50864
-3.54167
-3.5965
-3.62147
-3.61924
-3.53291
-3.48072
-3.46378
-3.45425
-3.44515
-3.43525
-3.42492
-3.41411
-3.40372
-3.40028
-3.41501
-3.43868
-3.44614
-3.43533
-3.41827
-3.40721
-3.40717
-3.4092
-3.41358
-3.42685
-3.45473
-3.48579
-3.50532
-3.51378
-3.52338
-3.53108
-3.52687
-3.50066
-3.45052
-3.40665
-3.3904
-3.40266
-3.43463
-3.48464
-3.51526
-3.60134
-3.73605
-3.89272
-4.04663
-4.03899
-3.90334
-3.75988
-3.65063
-3.55714
-3.49669
-3.47993
-3.49992
-3.56688
-3.62458
-3.60154
-3.50133
-3.46145
-3.44871
-3.44225
-3.43563
-3.42982
-3.42314
-3.41485
-3.40626
-3.40267
-3.41042
-3.42423
-3.43078
-3.42562
-3.41369
-3.40257
-3.40081
-3.40251
-3.40546
-3.41884
-3.4465
-3.47606
-3.49472
-3.50149
-3.51031
-3.52057
-3.5152
-3.48327
-3.43425
-3.39667
-3.38867
-3.40499
-3.43591
-3.46433
-3.49667
-3.57705
-3.69543
-3.85934
-4.0525
-4.06562
-3.93625
-3.76347
-3.632
-3.53174
-3.46251
-3.44035
-3.45363
-3.54012
-3.62852
-3.56193
-3.46617
-3.43903
-3.43136
-3.42746
-3.42451
-3.42326
-3.42093
-3.41589
-3.40901
-3.40443
-3.40634
-3.41349
-3.4197
-3.41944
-3.41053
-3.39811
-3.39408
-3.39439
-3.39626
-3.41207
-3.43817
-3.46348
-3.48251
-3.48815
-3.49287
-3.50238
-3.49511
-3.46289
-3.42152
-3.3919
-3.39352
-3.41021
-3.43408
-3.45357
-3.48433
-3.55642
-3.65948
-3.80602
-4.00612
-4.04347
-3.92758
-3.75209
-3.60602
-3.50233
-3.43169
-3.4085
-3.42958
-3.54139
-3.62347
-3.5177
-3.44133
-3.42319
-3.41918
-3.41692
-3.41613
-3.41749
-3.41799
-3.41532
-3.40957
-3.40432
-3.4036
-3.40861
-3.41537
-3.41666
-3.40766
-3.39498
-3.38934
-3.38848
-3.39192
-3.4096
-3.43264
-3.45504
-3.47647
-3.48132
-3.48158
-3.49223
-3.48806
-3.45811
-3.42023
-3.39781
-3.40392
-3.41754
-3.435
-3.45135
-3.47714
-3.5376
-3.62572
-3.73823
-3.90358
-3.97324
-3.87916
-3.71579
-3.56714
-3.465
-3.3992
-3.37992
-3.42465
-3.56489
-3.59933
-3.4725
-3.41973
-3.41027
-3.40928
-3.40775
-3.40807
-3.41058
-3.41286
-3.41226
-3.40774
-3.40267
-3.40151
-3.40636
-3.41254
-3.41308
-3.40432
-3.39241
-3.38515
-3.38378
-3.39086
-3.40724
-3.42652
-3.44819
-3.47193
-3.47534
-3.47299
-3.48631
-3.48702
-3.46145
-3.42878
-3.41456
-3.42038
-3.42867
-3.43983
-3.45435
-3.47424
-3.52166
-3.59289
-3.67484
-3.77153
-3.84342
-3.78986
-3.65142
-3.51403
-3.42117
-3.36499
-3.36169
-3.44637
-3.58833
-3.54906
-3.43877
-3.40257
-3.40098
-3.40235
-3.40002
-3.40005
-3.40218
-3.40501
-3.40582
-3.40285
-3.39911
-3.3992
-3.40408
-3.40901
-3.40918
-3.4021
-3.39049
-3.38126
-3.38005
-3.38997
-3.40345
-3.41982
-3.44063
-3.46249
-3.46495
-3.46525
-3.48084
-3.48811
-3.47072
-3.44961
-3.44126
-3.4423
-3.44335
-3.44755
-3.4586
-3.47306
-3.50868
-3.55957
-3.61728
-3.66019
-3.67385
-3.64757
-3.55663
-3.44843
-3.3707
-3.3349
-3.36856
-3.48372
-3.57857
-3.48967
-3.41277
-3.38992
-3.39472
-3.39887
-3.39358
-3.3915
-3.39235
-3.39493
-3.39623
-3.39471
-3.3929
-3.39496
-3.40086
-3.40619
-3.40721
-3.40195
-3.38889
-3.37707
-3.37587
-3.38598
-3.39805
-3.41283
-3.43047
-3.44642
-3.4517
-3.45761
-3.47533
-3.49131
-3.48803
-3.48069
-3.47395
-3.46743
-3.45985
-3.45628
-3.46111
-3.47064
-3.49666
-3.5288
-3.56218
-3.58325
-3.56725
-3.51759
-3.44874
-3.37807
-3.3312
-3.32998
-3.38977
-3.49786
-3.52256
-3.43981
-3.39232
-3.37951
-3.38892
-3.39724
-3.38745
-3.38135
-3.38141
-3.384
-3.38554
-3.38537
-3.38587
-3.39076
-3.39898
-3.40563
-3.40798
-3.4034
-3.38667
-3.37174
-3.37004
-3.37965
-3.39232
-3.40579
-3.41968
-3.43251
-3.44062
-3.45073
-3.47144
-3.49601
-3.50985
-3.51406
-3.50638
-3.49152
-3.47513
-3.46386
-3.46039
-3.46502
-3.48314
-3.50087
-3.51639
-3.52264
-3.50307
-3.4572
-3.39977
-3.34927
-3.32245
-3.33411
-3.3942
-3.47163
-3.45622
-3.40337
-3.37584
-3.3686
-3.37932
-3.39114
-3.37773
-3.36805
-3.36922
-3.37319
-3.3754
-3.37658
-3.37965
-3.38834
-3.39957
-3.40734
-3.4107
-3.40479
-3.38238
-3.36475
-3.36288
-3.37302
-3.38612
-3.39828
-3.41033
-3.42168
-3.43078
-3.44337
-3.46691
-3.49791
-3.5262
-3.53944
-3.53061
-3.50893
-3.48561
-3.46813
-3.456
-3.45595
-3.46678
-3.47455
-3.47816
-3.47517
-3.45578
-3.41904
-3.37588
-3.33994
-3.32183
-3.33328
-3.37878
-3.41899
-3.40219
-3.37641
-3.36334
-3.35774
-3.3645
-3.37569
-3.36162
-3.35094
-3.35511
-3.36199
-3.36554
-3.36803
-3.37358
-3.38679
-3.40142
-3.40949
-3.41283
-3.40263
-3.37475
-3.3568
-3.35593
-3.36681
-3.37948
-3.39069
-3.40133
-3.41155
-3.42131
-3.43487
-3.45867
-3.4929
-3.52869
-3.5477
-3.53903
-3.51457
-3.48826
-3.46747
-3.44619
-3.44167
-3.44423
-3.44414
-3.4383
-3.42866
-3.41149
-3.38619
-3.35849
-3.337
-3.32753
-3.33169
-3.34912
-3.36636
-3.36655
-3.36174
-3.35718
-3.35132
-3.34981
-3.35231
-3.33801
-3.32745
-3.33512
-3.34583
-3.35284
-3.35823
-3.36539
-3.37925
-3.3956
-3.40419
-3.40621
-3.38802
-3.36221
-3.34834
-3.34989
-3.36113
-3.37225
-3.38125
-3.39007
-3.39968
-3.41011
-3.42333
-3.44309
-3.47477
-3.50958
-3.52942
-3.52376
-3.50306
-3.47936
-3.45923
-3.43532
-3.42883
-3.42666
-3.4226
-3.41287
-3.39959
-3.38325
-3.36369
-3.34473
-3.33152
-3.32707
-3.32996
-3.33573
-3.34797
-3.35842
-3.35713
-3.35224
-3.3463
-3.34253
-3.33886
-3.32357
-3.31235
-3.32116
-3.33286
-3.34317
-3.35229
-3.36003
-3.36675
-3.37645
-3.38541
-3.38483
-3.3685
-3.35307
-3.34431
-3.34867
-3.35952
-3.36785
-3.37422
-3.38159
-3.39124
-3.40231
-3.4145
-3.42868
-3.45217
-3.48037
-3.49722
-3.49562
-3.48189
-3.46404
-3.44745
-3.42283
-3.41548
-3.41049
-3.40409
-3.39289
-3.37767
-3.36094
-3.34423
-3.32988
-3.32117
-3.3196
-3.32331
-3.3291
-3.34013
-3.35256
-3.35293
-3.34695
-3.34067
-3.33554
-3.32914
-3.31471
-3.30448
-3.31302
-3.32438
-3.33568
-3.34625
-3.35253
-3.35291
-3.35089
-3.35322
-3.35322
-3.35074
-3.34729
-3.34319
-3.35059
-3.35976
-3.36474
-3.36826
-3.37426
-3.38423
-3.39639
-3.40725
-3.41528
-3.42871
-3.44639
-3.45918
-3.46206
-3.45626
-3.44546
-3.43327
-3.41069
-3.40311
-3.39654
-3.3888
-3.37724
-3.36178
-3.34467
-3.32881
-3.31649
-3.30962
-3.3086
-3.31294
-3.32185
-3.33489
-3.34608
-3.34674
-3.34134
-3.33537
-3.32951
-3.32181
-3.30971
-3.30248
-3.30908
-3.31922
-3.32939
-3.33869
-3.34317
-3.3414
-3.33438
-3.32721
-3.32949
-3.34049
-3.34363
-3.34455
-3.35332
-3.36075
-3.36211
-3.36291
-3.36797
-3.37925
-3.39319
-3.40201
-3.40353
-3.40874
-3.41864
-3.4276
-3.43263
-3.43231
-3.42734
-3.4194
-3.40048
-3.39333
-3.3858
-3.37707
-3.3654
-3.3505
-3.33401
-3.31867
-3.30696
-3.30072
-3.29994
-3.304
-3.31313
-3.32583
-3.33575
-3.33766
-3.33425
-3.32934
-3.32358
-3.31596
-3.30726
-3.30225
-3.30582
-3.3141
-3.32286
-3.33152
-3.33656
-3.33523
-3.32734
-3.32003
-3.32329
-3.335
-3.3402
-3.34529
-3.35568
-3.36357
-3.35949
-3.3568
-3.36199
-3.37742
-3.39365
-3.39838
-3.39297
-3.39247
-3.39748
-3.40381
-3.40926
-3.41225
-3.4114
-3.40694
-3.39075
-3.38515
-3.37781
-3.36802
-3.35607
-3.34235
-3.32785
-3.31421
-3.3032
-3.29653
-3.29516
-3.29898
-3.30707
-3.31705
-3.32465
-3.32686
-3.32465
-3.32051
-3.31522
-3.30877
-3.30328
-3.29996
-3.30117
-3.30772
-3.31606
-3.32452
-3.32964
-3.32912
-3.32336
-3.31753
-3.32087
-3.32914
-3.3376
-3.34297
-3.35634
-3.36742
-3.35501
-3.346
-3.35332
-3.37906
-3.39775
-3.39422
-3.38094
-3.37687
-3.37864
-3.38255
-3.38744
-3.3927
-3.39574
-3.39473
-3.38646
-3.38215
-3.37519
-3.36513
-3.35292
-3.34018
-3.32772
-3.31616
-3.30654
-3.29994
-3.29743
-3.29956
-3.30558
-3.313
-3.31836
-3.31947
-3.31702
-3.31306
-3.30845
-3.30345
-3.2993
-3.29675
-3.29718
-3.30261
-3.31092
-3.31736
-3.32226
-3.32272
-3.31716
-3.31176
-3.31345
-3.32302
-3.33525
-3.34116
-3.34583
-3.35589
-3.34999
-3.34382
-3.35358
-3.37702
-3.394
-3.38641
-3.37245
-3.36821
-3.36913
-3.37204
-3.37652
-3.38218
-3.38675
-3.38826
-3.38648
-3.38376
-3.37605
-3.36421
-3.35216
-3.34086
-3.33076
-3.32146
-3.31332
-3.3073
-3.30424
-3.30443
-3.30737
-3.31132
-3.31355
-3.31249
-3.30928
-3.30569
-3.30224
-3.29878
-3.29576
-3.29378
-3.29352
-3.29834
-3.30708
-3.31355
-3.32013
-3.32211
-3.31392
-3.30394
-3.30444
-3.31531
-3.32831
-3.33723
-3.33022
-3.33979
-3.35595
-3.36221
-3.36588
-3.37215
-3.37657
-3.37123
-3.36334
-3.36118
-3.36247
-3.36588
-3.37067
-3.37616
-3.38128
-3.3852
-3.39463
-3.39402
-3.38143
-3.36372
-3.35071
-3.34207
-3.33542
-3.32876
-3.32185
-3.3162
-3.31286
-3.31177
-3.31214
-3.31238
-3.31039
-3.30584
-3.30077
-3.29794
-3.29669
-3.29491
-3.293
-3.29191
-3.29075
-3.29619
-3.3073
-3.31624
-3.32539
-3.32726
-3.31529
-3.29827
-3.29684
-3.3068
-3.31627
-3.32335
-3.3246
-3.34218
-3.37071
-3.38284
-3.37773
-3.36847
-3.36044
-3.35611
-3.35311
-3.35323
-3.35621
-3.36151
-3.36759
-3.37347
-3.37986
-3.38779
-3.41518
-3.41087
-3.38312
-3.35614
-3.34576
-3.34155
-3.33998
-3.33665
-3.3308
-3.32533
-3.32171
-3.3195
-3.31792
-3.3156
-3.31002
-3.30029
-3.29063
-3.28918
-3.29278
-3.29314
-3.29127
-3.2916
-3.29529
-3.29944
-3.31435
-3.33155
-3.34225
-3.33411
-3.31448
-3.29325
-3.29317
-3.30071
-3.30497
-3.31141
-3.33406
-3.35867
-3.37411
-3.37989
-3.37097
-3.35777
-3.3473
-3.34596
-3.34447
-3.34409
-3.34839
-3.35695
-3.3659
-3.37341
-3.38288
-3.39935
-3.41178
-3.40215
-3.36915
-3.3457
-3.33968
-3.34135
-3.34406
-3.34327
-3.33836
-3.33337
-3.32973
-3.32599
-3.32238
-3.31897
-3.31285
-3.30101
-3.28541
-3.28597
-3.29812
-3.29687
-3.28798
-3.28808
-3.29991
-3.30348
-3.32463
-3.35224
-3.35975
-3.3345
-3.30711
-3.29343
-3.29884
-3.30278
-3.29916
-3.30785
-3.34256
-3.35203
-3.35812
-3.36062
-3.35528
-3.34522
-3.33553
-3.33812
-3.33866
-3.33569
-3.33919
-3.35116
-3.36463
-3.37468
-3.38544
-3.40402
-3.38948
-3.37405
-3.34695
-3.33974
-3.33359
-3.33919
-3.34802
-3.34563
-3.34093
-3.34191
-3.341
-3.33121
-3.3202
-3.31584
-3.31858
-3.32695
-3.32375
-3.30474
-3.31373
-3.30736
-3.28407
-3.27268
-3.26732
-3.27736
-3.30725
-3.33662
-3.34214
-3.32106
-3.29682
-3.29325
-3.30651
-3.31636
-3.3145
-3.34844
-3.39783
-3.35735
-3.33451
-3.33812
-3.33652
-3.33657
-3.33329
-3.34183
-3.35453
-3.35033
-3.34038
-3.35298
-3.36734
-3.37668
-3.38423
-3.39071
-3.37987
-3.3633
-3.34088
-3.33259
-3.33088
-3.3369
-3.34525
-3.34609
-3.34251
-3.34485
-3.34425
-3.32921
-3.31092
-3.30173
-3.30106
-3.31947
-3.33907
-3.3163
-3.30053
-3.30062
-3.27689
-3.25942
-3.25059
-3.25542
-3.27692
-3.29889
-3.31386
-3.31933
-3.30553
-3.29437
-3.29465
-3.29217
-3.27992
-3.30233
-3.33773
-3.33939
-3.34046
-3.33551
-3.33619
-3.34081
-3.33624
-3.33705
-3.34768
-3.3504
-3.34147
-3.35244
-3.366
-3.37681
-3.38594
-3.38857
-3.50035
-3.4941
-3.50075
-3.52048
-3.54608
-3.56811
-3.58012
-3.57882
-3.56966
-3.56872
-3.56725
-3.56936
-3.53876
-3.5295
-3.5266
-3.5405
-3.56785
-3.59746
-3.6042
-3.58351
-3.55526
-3.52485
-3.49191
-3.51077
-3.54561
-3.53091
-3.49964
-3.48428
-3.50244
-3.52005
-3.50819
-3.48052
-3.47138
-3.4864
-3.49725
-3.56236
-3.63603
-3.68974
-3.7212
-3.69475
-3.66779
-3.65277
-3.64428
-3.63437
-3.61464
-3.58842
-3.56394
-3.54574
-3.53077
-3.51458
-3.50011
-3.49379
-3.50043
-3.52022
-3.54587
-3.56791
-3.57996
-3.57877
-3.56959
-3.56833
-3.56713
-3.56929
-3.53898
-3.52938
-3.52666
-3.54045
-3.56775
-3.59743
-3.60403
-3.58318
-3.55464
-3.52401
-3.4911
-3.5111
-3.54541
-3.53047
-3.49935
-3.48402
-3.50232
-3.51981
-3.50802
-3.48039
-3.47146
-3.48748
-3.49954
-3.56259
-3.63576
-3.68904
-3.72109
-3.69458
-3.66777
-3.65284
-3.64436
-3.63449
-3.61473
-3.58844
-3.56388
-3.54565
-3.5307
-3.51446
-3.49945
-3.49303
-3.49983
-3.51995
-3.54588
-3.56802
-3.58012
-3.57889
-3.5693
-3.56781
-3.56651
-3.56947
-3.53808
-3.52919
-3.52651
-3.54023
-3.5674
-3.59734
-3.60383
-3.58199
-3.55231
-3.52153
-3.48899
-3.51113
-3.54614
-3.53029
-3.4984
-3.48281
-3.50208
-3.52021
-3.50814
-3.47982
-3.47129
-3.48959
-3.50318
-3.56264
-3.63576
-3.68959
-3.72218
-3.69379
-3.66704
-3.65245
-3.64413
-3.63453
-3.61479
-3.5883
-3.56359
-3.54543
-3.53058
-3.51411
-3.49828
-3.49189
-3.49917
-3.51998
-3.54648
-3.56883
-3.58081
-3.57925
-3.56875
-3.56715
-3.56521
-3.56887
-3.53545
-3.52924
-3.52624
-3.54022
-3.56699
-3.59681
-3.6035
-3.58017
-3.54849
-3.51787
-3.48695
-3.51167
-3.54809
-3.53103
-3.49705
-3.48072
-3.50183
-3.52183
-3.50893
-3.47858
-3.47041
-3.49146
-3.50661
-3.56279
-3.63589
-3.69224
-3.7233
-3.69122
-3.66484
-3.65123
-3.64347
-3.63443
-3.6148
-3.58804
-3.56314
-3.54512
-3.53032
-3.51335
-3.49639
-3.49043
-3.49869
-3.52066
-3.54802
-3.57062
-3.58217
-3.57983
-3.5679
-3.56583
-3.56289
-3.56592
-3.53078
-3.52992
-3.52644
-3.54099
-3.56688
-3.59556
-3.60312
-3.57868
-3.54446
-3.5145
-3.48688
-3.51558
-3.551
-3.53304
-3.49578
-3.47807
-3.50178
-3.52527
-3.51045
-3.47636
-3.46796
-3.4908
-3.50687
-3.56301
-3.63557
-3.69646
-3.72183
-3.68575
-3.66051
-3.6487
-3.64207
-3.63393
-3.61455
-3.58754
-3.56245
-3.5445
-3.52945
-3.51178
-3.4944
-3.48919
-3.49867
-3.52191
-3.55009
-3.57281
-3.58371
-3.58037
-3.56703
-3.56397
-3.56017
-3.56143
-3.5259
-3.5314
-3.5274
-3.54221
-3.56705
-3.59412
-3.60313
-3.57857
-3.5421
-3.513
-3.4889
-3.52356
-3.55347
-3.53536
-3.49518
-3.47599
-3.50216
-3.52953
-3.51206
-3.47406
-3.46462
-3.48723
-3.50333
-3.56364
-3.63509
-3.69991
-3.71829
-3.68015
-3.65594
-3.64572
-3.64024
-3.63297
-3.6139
-3.58677
-3.56155
-3.54346
-3.52792
-3.50972
-3.49111
-3.48759
-3.49945
-3.525
-3.55447
-3.57702
-3.5864
-3.58112
-3.56564
-3.56021
-3.55496
-3.5524
-3.51826
-3.53523
-3.52982
-3.54442
-3.56745
-3.59174
-3.60428
-3.5802
-3.54016
-3.51266
-3.49437
-3.54251
-3.55633
-3.53884
-3.49493
-3.47341
-3.50384
-3.53769
-3.51516
-3.47103
-3.45867
-3.47834
-3.49402
-3.56572
-3.63514
-3.70361
-3.71245
-3.67265
-3.64911
-3.64039
-3.63643
-3.63038
-3.61187
-3.58471
-3.55933
-3.5407
-3.52419
-3.50567
-3.48733
-3.48621
-3.50136
-3.53021
-3.56135
-3.58311
-3.58999
-3.58186
-3.56396
-3.55507
-3.54784
-3.54053
-3.51041
-3.54234
-3.53355
-3.54745
-3.56796
-3.5892
-3.60737
-3.58365
-3.53934
-3.51375
-3.50266
-3.57134
-3.5585
-3.54184
-3.49474
-3.47123
-3.50815
-3.54941
-3.52037
-3.46896
-3.45228
-3.46682
-3.48268
-3.56863
-3.63698
-3.7061
-3.70806
-3.66579
-3.64197
-3.63365
-3.63086
-3.62594
-3.60812
-3.58111
-3.55552
-3.53598
-3.51854
-3.50041
-3.4833
-3.48489
-3.50404
-3.53746
-3.57123
-3.59162
-3.59473
-3.58268
-3.56195
-3.54905
-3.53936
-3.52713
-3.50383
-3.55317
-3.53988
-3.55231
-3.56899
-3.58705
-3.61242
-3.58848
-3.53942
-3.51571
-3.51271
-3.608
-3.56036
-3.54358
-3.4941
-3.46979
-3.51689
-3.5658
-3.52858
-3.46825
-3.4465
-3.45545
-3.47296
-3.57048
-3.64085
-3.70982
-3.70599
-3.65942
-3.63451
-3.62575
-3.62383
-3.61994
-3.60295
-3.57625
-3.55042
-3.5299
-3.51185
-3.49459
-3.47906
-3.4835
-3.50718
-3.54623
-3.58401
-3.6031
-3.60119
-3.58394
-3.55964
-3.54256
-3.53048
-3.51385
-3.49931
-3.56956
-3.55106
-3.56016
-3.57144
-3.58592
-3.61847
-3.59405
-3.54022
-3.51799
-3.52275
-3.64418
-3.56032
-3.54378
-3.49338
-3.4697
-3.5317
-3.58789
-3.54037
-3.46901
-3.44163
-3.44581
-3.46585
-3.56988
-3.6458
-3.71797
-3.70597
-3.65326
-3.62668
-3.61685
-3.61591
-3.61316
-3.59713
-3.57086
-3.5448
-3.52341
-3.50503
-3.48864
-3.47464
-3.48208
-3.51076
-3.55629
-3.59923
-3.61797
-3.61017
-3.58635
-3.55738
-3.53594
-3.52205
-3.5017
-3.49794
-3.59342
-3.56893
-3.57143
-3.57629
-3.58612
-3.62365
-3.59913
-3.54144
-3.52016
-3.5308
-3.66882
-3.55668
-3.54265
-3.49387
-3.47197
-3.55349
-3.61623
-3.55569
-3.47115
-3.43774
-3.43829
-3.46041
-3.56564
-3.65108
-3.73025
-3.70739
-3.64711
-3.61851
-3.60715
-3.60756
-3.60634
-3.59124
-3.56537
-3.53912
-3.51707
-3.49839
-3.48266
-3.47007
-3.48067
-3.51489
-3.56766
-3.61651
-3.63581
-3.62249
-3.59078
-3.55578
-3.52973
-3.51459
-3.49172
-3.50124
-3.62618
-3.59395
-3.58601
-3.58387
-3.58718
-3.62551
-3.60188
-3.54261
-3.52184
-3.53533
-3.67019
-3.54802
-3.5405
-3.49714
-3.4783
-3.58206
-3.65009
-3.57372
-3.47434
-3.43492
-3.43272
-3.4558
-3.55631
-3.65719
-3.74499
-3.70941
-3.64079
-3.61019
-3.59712
-3.59913
-3.59998
-3.58578
-3.56001
-3.53351
-3.5109
-3.49193
-3.47665
-3.46534
-3.47933
-3.51975
-3.58068
-3.63593
-3.65579
-3.63791
-3.59821
-3.55556
-3.52458
-3.50852
-3.48515
-3.51007
-3.66668
-3.62461
-3.60291
-3.59345
-3.58771
-3.62192
-3.60064
-3.54315
-3.52266
-3.53571
-3.64611
-3.53313
-3.53738
-3.50474
-3.4908
-3.61681
-3.6873
-3.5931
-3.47821
-3.4332
-3.42876
-3.45196
-3.54242
-3.66274
-3.75969
-3.71083
-3.6342
-3.60193
-3.58745
-3.59109
-3.59441
-3.58071
-3.55483
-3.528
-3.50487
-3.48559
-3.47057
-3.46046
-3.47814
-3.52571
-3.59609
-3.65842
-3.67791
-3.65602
-3.60909
-3.55756
-3.52122
-3.50418
-3.48296
-3.52419
-3.70947
-3.65711
-3.61926
-3.60342
-3.58585
-3.61198
-3.59477
-3.5425
-3.52234
-3.5321
-3.60521
-3.51307
-3.53336
-3.51801
-3.51094
-3.65595
-3.72493
-3.61222
-3.48242
-3.43251
-3.42632
-3.44933
-3.52807
-3.66624
-3.77046
-3.71008
-3.62721
-3.59404
-3.57886
-3.58398
-3.58978
-3.57608
-3.54985
-3.52263
-3.49898
-3.47935
-3.46442
-3.45539
-3.47733
-3.53327
-3.61459
-3.68538
-3.7033
-3.67607
-3.62324
-3.56273
-3.52036
-3.5019
-3.48547
-3.54219
-3.74562
-3.68579
-3.63094
-3.61108
-3.58031
-3.59654
-3.5849
-3.54028
-3.52063
-3.52522
-3.56065
-3.49198
-3.52869
-3.53671
-3.53884
-3.69691
-3.76022
-3.62907
-3.48652
-3.43269
-3.4255
-3.44811
-3.51752
-3.66428
-3.77231
-3.70529
-3.61974
-3.58679
-3.572
-3.57834
-3.58595
-3.57164
-3.54501
-3.51737
-3.49319
-3.47314
-3.45813
-3.45013
-3.47721
-3.54238
-3.63596
-3.71798
-3.73341
-3.69798
-3.64013
-3.5718
-3.52255
-3.50189
-3.49201
-3.56099
-3.76674
-3.70495
-3.63462
-3.61405
-3.57108
-3.57784
-3.57241
-3.53637
-3.51743
-3.51605
-3.52258
-3.47467
-3.52329
-3.55757
-3.57024
-3.73588
-3.79061
-3.64141
-3.48994
-3.43354
-3.42639
-3.44802
-3.51124
-3.65512
-3.76084
-3.69465
-3.61172
-3.58046
-3.56723
-3.57438
-3.58235
-3.56686
-3.54021
-3.5122
-3.48745
-3.46689
-3.45161
-3.44481
-3.47789
-3.55207
-3.65778
-3.75448
-3.76915
-3.72227
-3.65904
-3.58492
-3.52811
-3.50428
-3.50115
-3.57759
-3.76927
-3.71219
-3.62981
-3.61106
-3.55945
-3.55866
-3.55859
-3.53089
-3.51277
-3.50557
-3.49436
-3.46393
-3.51747
-3.57498
-3.60072
-3.76867