/*--------------------------------*- C++ -*----------------------------------*\
| =========                 |                                                 |
| \\      /  F ield         | OpenFOAM: The Open Source CFD Toolbox           |
|  \\    /   O peration     | Version:  4.x                                   |
|   \\  /    A nd           | Web:      www.OpenFOAM.org                      |
|    \\/     M anipulation  |                                                 |
\*---------------------------------------------------------------------------*/
FoamFile
{
    version     2.0;
    format      ascii;
    class       volScalarField;
    location    "1000";
    object      pMean;
}
// * * * * * * * * * * * * * * * * * * * * * * * * * * * * * * * * * * * * * //

dimensions      [0 2 -2 0 0 0 0];

internalField   nonuniform List<scalar> 
237650
(
-4.42484
-4.42487
-4.42484
-4.42447
-4.42403
-4.42403
-4.42483
-4.4248
-4.42439
-4.42404
-4.42393
-4.42411
-4.42404
-4.42408
-4.42444
-4.42473
-4.42424
-4.42365
-4.42279
-4.4221
-4.42218
-4.42292
-4.42353
-4.42369
-4.42304
-4.42216
-4.42103
-4.41978
-4.41862
-4.41817
-4.41829
-4.41873
-4.41827
-4.41725
-4.4169
-4.41717
-4.41731
-4.41758
-4.41826
-4.41905
-4.42006
-4.42131
-4.42219
-4.42291
-4.4237
-4.42444
-4.42438
-4.4243
-4.42443
-4.42457
-4.42471
-4.42474
-4.4247
-4.42436
-4.42393
-4.42393
-4.42473
-4.42468
-4.42425
-4.42392
-4.42382
-4.424
-4.42394
-4.42397
-4.42433
-4.42464
-4.42413
-4.42354
-4.42268
-4.422
-4.42208
-4.42281
-4.42343
-4.4236
-4.42294
-4.42206
-4.42092
-4.41968
-4.41853
-4.41807
-4.41819
-4.4186
-4.41816
-4.41716
-4.41679
-4.41706
-4.41719
-4.41746
-4.41813
-4.41891
-4.41992
-4.42119
-4.42207
-4.42278
-4.42358
-4.42431
-4.42425
-4.42416
-4.42429
-4.42444
-4.42458
-4.42461
-4.42456
-4.42423
-4.4238
-4.42381
-4.42464
-4.42456
-4.42412
-4.42378
-4.42369
-4.42389
-4.4238
-4.42383
-4.42421
-4.42453
-4.424
-4.42343
-4.42254
-4.42186
-4.42194
-4.4227
-4.42332
-4.42351
-4.42285
-4.42195
-4.42082
-4.41957
-4.41842
-4.41796
-4.41807
-4.41851
-4.41807
-4.41707
-4.41667
-4.41694
-4.41706
-4.41732
-4.41799
-4.41877
-4.41977
-4.42107
-4.42194
-4.42264
-4.42345
-4.42418
-4.42409
-4.42401
-4.42414
-4.42429
-4.42415
-4.42419
-4.42412
-4.42381
-4.42336
-4.42338
-4.42427
-4.42419
-4.42372
-4.42335
-4.42328
-4.42349
-4.42336
-4.42336
-4.42378
-4.42414
-4.4236
-4.42304
-4.42212
-4.42137
-4.42149
-4.42232
-4.42293
-4.42319
-4.42247
-4.42155
-4.42043
-4.41919
-4.41804
-4.41758
-4.41768
-4.41819
-4.41781
-4.41673
-4.41626
-4.41656
-4.41663
-4.41688
-4.41757
-4.41833
-4.41934
-4.42066
-4.42151
-4.42221
-4.42304
-4.42376
-4.42361
-4.42352
-4.42368
-4.42383
-4.42308
-4.42317
-4.42306
-4.42277
-4.42229
-4.42231
-4.42327
-4.42324
-4.42275
-4.4223
-4.42225
-4.42248
-4.42229
-4.42225
-4.42274
-4.42314
-4.4226
-4.42207
-4.42107
-4.42023
-4.42043
-4.42138
-4.42199
-4.42232
-4.42155
-4.42055
-4.41941
-4.4182
-4.41707
-4.4166
-4.41669
-4.41738
-4.41707
-4.41583
-4.41532
-4.4156
-4.41562
-4.41587
-4.41657
-4.41736
-4.41838
-4.4197
-4.42048
-4.42119
-4.42205
-4.42273
-4.42249
-4.42242
-4.42258
-4.42271
-4.42108
-4.42124
-4.42109
-4.4208
-4.42027
-4.42028
-4.42133
-4.4214
-4.42093
-4.42037
-4.4203
-4.42054
-4.42026
-4.42019
-4.42077
-4.42123
-4.42071
-4.42021
-4.41911
-4.41815
-4.41849
-4.41961
-4.42022
-4.42062
-4.41981
-4.41866
-4.41748
-4.41633
-4.41524
-4.41468
-4.41481
-4.41579
-4.41556
-4.4141
-4.41358
-4.41383
-4.41376
-4.414
-4.41475
-4.41558
-4.41667
-4.41789
-4.41856
-4.41931
-4.42019
-4.42077
-4.42048
-4.42042
-4.42053
-4.42062
-4.41811
-4.41837
-4.41817
-4.41786
-4.41727
-4.41723
-4.41841
-4.41863
-4.41818
-4.41756
-4.41739
-4.41759
-4.41723
-4.41716
-4.41785
-4.41833
-4.41787
-4.41739
-4.41617
-4.41516
-4.41568
-4.41698
-4.4176
-4.41804
-4.4172
-4.41585
-4.41458
-4.41353
-4.41246
-4.41179
-4.412
-4.41335
-4.41314
-4.41147
-4.41103
-4.41123
-4.41105
-4.41128
-4.4121
-4.413
-4.41418
-4.41523
-4.41574
-4.41653
-4.41742
-4.41786
-4.41755
-4.4175
-4.41753
-4.41751
-4.41545
-4.41584
-4.41561
-4.41525
-4.41462
-4.41453
-4.41581
-4.41619
-4.41574
-4.41509
-4.41484
-4.41495
-4.41452
-4.41449
-4.41525
-4.41575
-4.41532
-4.41486
-4.41356
-4.41258
-4.41323
-4.41466
-4.41532
-4.41576
-4.41487
-4.41336
-4.41204
-4.41106
-4.40999
-4.40924
-4.40952
-4.41114
-4.41091
-4.40912
-4.40879
-4.40894
-4.40868
-4.40892
-4.40979
-4.41077
-4.41202
-4.4129
-4.41328
-4.41408
-4.41496
-4.41528
-4.41501
-4.41495
-4.41492
-4.41479
-4.41123
-4.41183
-4.41158
-4.41112
-4.41045
-4.41029
-4.41173
-4.41233
-4.41189
-4.41125
-4.41086
-4.41075
-4.41024
-4.41028
-4.41114
-4.41164
-4.41126
-4.4108
-4.40943
-4.40859
-4.4094
-4.41101
-4.41173
-4.41212
-4.41115
-4.40944
-4.40808
-4.40717
-4.40605
-4.40524
-4.40558
-4.40757
-4.40728
-4.40541
-4.4053
-4.40538
-4.40497
-4.4052
-4.40621
-4.40734
-4.40866
-4.40928
-4.40942
-4.41026
-4.41107
-4.41126
-4.41104
-4.411
-4.41086
-4.41054
-4.40661
-4.40746
-4.40723
-4.40669
-4.40601
-4.40578
-4.40741
-4.40819
-4.40777
-4.40718
-4.40663
-4.40619
-4.40562
-4.40575
-4.40671
-4.4072
-4.40683
-4.40635
-4.40497
-4.40439
-4.40532
-4.4071
-4.4079
-4.40819
-4.40709
-4.40528
-4.40391
-4.40305
-4.40181
-4.40094
-4.40134
-4.4036
-4.40328
-4.40142
-4.40155
-4.40156
-4.40102
-4.40121
-4.40237
-4.40373
-4.40509
-4.40546
-4.40534
-4.40619
-4.40686
-4.40697
-4.40679
-4.40681
-4.40655
-4.40597
-4.40173
-4.4029
-4.40271
-4.40216
-4.40149
-4.40126
-4.40305
-4.40398
-4.40365
-4.4031
-4.40234
-4.40151
-4.40089
-4.40111
-4.40215
-4.40264
-4.40223
-4.4017
-4.40041
-4.40018
-4.40115
-4.40306
-4.40401
-4.40417
-4.40291
-4.40113
-4.39978
-4.3989
-4.39748
-4.39654
-4.39699
-4.39939
-4.39909
-4.39733
-4.3977
-4.39763
-4.39699
-4.39709
-4.39839
-4.40007
-4.40145
-4.40161
-4.40121
-4.40201
-4.40251
-4.40261
-4.40244
-4.40252
-4.40213
-4.40124
-4.39669
-4.39815
-4.39805
-4.39759
-4.39697
-4.3968
-4.39873
-4.39976
-4.3996
-4.3991
-4.39805
-4.39682
-4.39617
-4.39641
-4.3975
-4.39803
-4.39754
-4.39697
-4.39587
-4.39601
-4.39697
-4.39898
-4.40012
-4.40017
-4.39877
-4.39711
-4.39577
-4.39479
-4.39315
-4.39215
-4.39262
-4.39504
-4.39479
-4.39319
-4.39377
-4.39363
-4.39286
-4.39284
-4.39426
-4.39633
-4.39774
-4.39775
-4.39707
-4.39772
-4.39809
-4.3982
-4.39806
-4.39816
-4.39764
-4.3964
-4.39153
-4.3932
-4.39326
-4.39299
-4.39242
-4.39238
-4.39444
-4.3955
-4.39554
-4.39514
-4.39372
-4.39218
-4.39146
-4.39166
-4.39276
-4.39338
-4.39281
-4.39221
-4.39136
-4.39184
-4.39276
-4.39482
-4.39619
-4.39615
-4.39471
-4.39322
-4.39184
-4.39065
-4.3888
-4.38776
-4.38827
-4.39057
-4.39038
-4.38899
-4.38973
-4.38949
-4.38854
-4.3884
-4.38992
-4.39241
-4.3939
-4.3938
-4.39287
-4.39327
-4.39357
-4.39371
-4.3936
-4.3937
-4.39303
-4.39147
-4.38625
-4.38801
-4.38829
-4.38827
-4.38778
-4.38791
-4.39007
-4.3911
-4.39133
-4.39109
-4.38929
-4.38754
-4.38672
-4.38676
-4.38786
-4.3886
-4.38799
-4.3874
-4.38684
-4.38757
-4.38844
-4.39049
-4.39208
-4.39198
-4.39067
-4.38937
-4.38786
-4.38639
-4.38436
-4.38334
-4.38387
-4.38599
-4.38582
-4.38465
-4.3855
-4.3851
-4.3839
-4.38371
-4.38531
-4.38819
-4.3898
-4.38957
-4.38845
-4.38857
-4.38882
-4.38903
-4.38898
-4.38906
-4.38825
-4.38643
-4.38084
-4.38253
-4.3831
-4.38334
-4.38295
-4.38328
-4.38552
-4.38646
-4.38679
-4.38677
-4.38466
-4.38281
-4.38185
-4.38159
-4.38268
-4.38359
-4.38304
-4.38245
-4.38219
-4.38309
-4.3839
-4.3859
-4.38768
-4.38753
-4.38651
-4.38541
-4.38374
-4.38191
-4.37974
-4.37878
-4.37933
-4.38126
-4.38106
-4.38012
-4.38103
-4.38039
-4.37887
-4.37865
-4.38038
-4.38357
-4.38527
-4.38488
-4.38361
-4.38349
-4.3837
-4.38402
-4.38414
-4.38418
-4.38322
-4.38128
-4.37527
-4.37678
-4.3776
-4.37811
-4.37782
-4.3784
-4.38064
-4.38143
-4.38183
-4.38199
-4.37975
-4.37783
-4.37668
-4.37608
-4.37717
-4.37828
-4.37789
-4.37727
-4.3773
-4.37827
-4.37905
-4.38094
-4.38284
-4.38265
-4.38207
-4.38122
-4.37935
-4.37715
-4.37487
-4.37399
-4.37452
-4.37628
-4.37608
-4.37532
-4.37623
-4.37525
-4.37338
-4.37314
-4.37509
-4.3785
-4.38018
-4.37956
-4.37822
-4.37794
-4.37811
-4.37862
-4.37896
-4.37898
-4.37788
-4.37594
-4.36946
-4.37074
-4.37178
-4.37252
-4.37229
-4.37312
-4.37529
-4.37591
-4.37637
-4.37664
-4.37441
-4.37244
-4.37109
-4.37016
-4.37124
-4.37259
-4.37244
-4.3718
-4.37206
-4.37301
-4.37377
-4.37554
-4.37743
-4.37729
-4.37714
-4.37664
-4.37464
-4.37207
-4.36969
-4.36888
-4.36934
-4.37093
-4.37081
-4.37016
-4.37098
-4.36964
-4.36741
-4.36709
-4.36936
-4.37289
-4.37438
-4.37352
-4.37216
-4.37185
-4.37202
-4.37279
-4.37335
-4.37335
-4.37214
-4.37036
-4.36333
-4.36442
-4.36561
-4.36656
-4.36629
-4.36735
-4.36937
-4.36988
-4.37043
-4.37067
-4.36851
-4.36653
-4.365
-4.36383
-4.36488
-4.36652
-4.3666
-4.36594
-4.36638
-4.36726
-4.36795
-4.36964
-4.37139
-4.37138
-4.37164
-4.3715
-4.36949
-4.36663
-4.36419
-4.3634
-4.36367
-4.36506
-4.36516
-4.36456
-4.3652
-4.36347
-4.36093
-4.36054
-4.36311
-4.36664
-4.36782
-4.36674
-4.36541
-4.3652
-4.36547
-4.36648
-4.36717
-4.36721
-4.366
-4.36446
-4.35683
-4.35777
-4.35909
-4.36015
-4.35984
-4.36099
-4.36279
-4.36326
-4.36394
-4.36409
-4.36193
-4.36001
-4.35829
-4.35701
-4.35812
-4.36007
-4.36029
-4.35961
-4.36017
-4.36098
-4.36156
-4.36314
-4.3647
-4.36493
-4.36553
-4.36574
-4.36384
-4.36077
-4.35831
-4.35749
-4.35751
-4.35865
-4.35898
-4.35843
-4.35879
-4.35673
-4.35397
-4.35353
-4.35628
-4.35971
-4.36051
-4.35928
-4.35803
-4.35801
-4.35841
-4.35958
-4.36037
-4.36051
-4.35943
-4.35816
-4.34988
-4.35067
-4.35215
-4.35329
-4.35294
-4.35401
-4.35552
-4.356
-4.35678
-4.35688
-4.35468
-4.3528
-4.35094
-4.34973
-4.351
-4.3532
-4.3534
-4.3527
-4.35335
-4.35414
-4.35457
-4.35606
-4.35744
-4.3579
-4.35874
-4.35924
-4.35755
-4.35441
-4.352
-4.35111
-4.35083
-4.35175
-4.35216
-4.35171
-4.35174
-4.34941
-4.34656
-4.34612
-4.3488
-4.35207
-4.35253
-4.35126
-4.35012
-4.35031
-4.35079
-4.352
-4.35286
-4.3532
-4.35239
-4.35137
-4.34241
-4.34297
-4.34468
-4.34589
-4.34555
-4.34641
-4.3476
-4.34808
-4.34889
-4.34901
-4.34682
-4.34491
-4.34296
-4.342
-4.34355
-4.34584
-4.34585
-4.34515
-4.34589
-4.34672
-4.34703
-4.34841
-4.34966
-4.3503
-4.35124
-4.35198
-4.35053
-4.34751
-4.34517
-4.34418
-4.34364
-4.34438
-4.34472
-4.34431
-4.34399
-4.34154
-4.33871
-4.33832
-4.34068
-4.34372
-4.34396
-4.34275
-4.3418
-4.34208
-4.34259
-4.3437
-4.34462
-4.34528
-4.34481
-4.344
-4.33432
-4.33463
-4.33656
-4.33789
-4.33757
-4.33814
-4.3391
-4.33954
-4.34028
-4.34044
-4.33839
-4.33641
-4.3344
-4.33383
-4.33572
-4.33792
-4.33765
-4.33697
-4.3378
-4.33868
-4.33898
-4.34022
-4.34141
-4.34215
-4.34301
-4.34396
-4.34272
-4.33999
-4.33775
-4.33661
-4.33596
-4.33655
-4.33667
-4.3362
-4.33555
-4.33316
-4.33048
-4.33011
-4.332
-4.33472
-4.33491
-4.33387
-4.33315
-4.33339
-4.33387
-4.33478
-4.33572
-4.33671
-4.33662
-4.33596
-4.3256
-4.32566
-4.32774
-4.3292
-4.32891
-4.3292
-4.33001
-4.33043
-4.33107
-4.3312
-4.32943
-4.32742
-4.32544
-4.32526
-4.32743
-4.32941
-4.32885
-4.32823
-4.32909
-4.32996
-4.3304
-4.33153
-4.33268
-4.33345
-4.33421
-4.3352
-4.33411
-4.33176
-4.32968
-4.32837
-4.32778
-4.32823
-4.32801
-4.32733
-4.32646
-4.32436
-4.32199
-4.32148
-4.32287
-4.32521
-4.32542
-4.3247
-4.32419
-4.32434
-4.32473
-4.32538
-4.3263
-4.32756
-4.32779
-4.32724
-4.31626
-4.31609
-4.3182
-4.31977
-4.31952
-4.31962
-4.32034
-4.3208
-4.32134
-4.32139
-4.31998
-4.31811
-4.31622
-4.31636
-4.31862
-4.32033
-4.31958
-4.319
-4.31977
-4.32061
-4.32129
-4.32237
-4.32349
-4.32427
-4.32491
-4.32575
-4.3247
-4.32277
-4.32098
-4.31955
-4.31911
-4.31937
-4.31871
-4.31778
-4.31684
-4.31524
-4.31333
-4.3125
-4.31336
-4.31532
-4.31556
-4.3152
-4.31487
-4.31499
-4.31524
-4.31567
-4.31649
-4.31786
-4.31827
-4.31785
-4.30631
-4.30602
-4.30798
-4.30958
-4.3094
-4.30942
-4.31013
-4.31068
-4.31117
-4.31118
-4.31016
-4.30853
-4.30682
-4.30716
-4.30933
-4.31076
-4.30994
-4.30929
-4.30983
-4.3107
-4.3116
-4.31275
-4.31384
-4.31461
-4.31511
-4.31566
-4.31462
-4.31312
-4.31165
-4.3102
-4.30986
-4.3099
-4.30884
-4.30772
-4.30686
-4.30582
-4.30441
-4.30324
-4.30357
-4.30515
-4.30539
-4.30536
-4.30514
-4.30528
-4.30544
-4.3057
-4.30633
-4.30763
-4.3081
-4.3078
-4.29589
-4.2956
-4.29727
-4.29869
-4.29865
-4.29871
-4.29949
-4.30012
-4.30064
-4.30072
-4.30004
-4.29872
-4.29725
-4.29773
-4.29966
-4.30081
-4.3
-4.29912
-4.29933
-4.30027
-4.30133
-4.30269
-4.30379
-4.30451
-4.30486
-4.30501
-4.30407
-4.30294
-4.30174
-4.30034
-4.30001
-4.29978
-4.29854
-4.29736
-4.2967
-4.29609
-4.29511
-4.29375
-4.29362
-4.29481
-4.29502
-4.29519
-4.29503
-4.29521
-4.29529
-4.29546
-4.29588
-4.29698
-4.29742
-4.29718
-4.28513
-4.28498
-4.28638
-4.28737
-4.28748
-4.28771
-4.28856
-4.2893
-4.28995
-4.29011
-4.28963
-4.28859
-4.28748
-4.2881
-4.28964
-4.29058
-4.28982
-4.28859
-4.28841
-4.2894
-4.29069
-4.29223
-4.29346
-4.29406
-4.29424
-4.29403
-4.29324
-4.29238
-4.29136
-4.29008
-4.28964
-4.28911
-4.2879
-4.28683
-4.28636
-4.28608
-4.28536
-4.28404
-4.28362
-4.28439
-4.28459
-4.28475
-4.28462
-4.28475
-4.28478
-4.28497
-4.28525
-4.28614
-4.28649
-4.28621
-4.27417
-4.27424
-4.27556
-4.27607
-4.27623
-4.27663
-4.27747
-4.27836
-4.27917
-4.2794
-4.27892
-4.27806
-4.27745
-4.27826
-4.27933
-4.28005
-4.27936
-4.27788
-4.2773
-4.27837
-4.27988
-4.28152
-4.28292
-4.28347
-4.28338
-4.28294
-4.28225
-4.28151
-4.28072
-4.27966
-4.27898
-4.27818
-4.27701
-4.27612
-4.27588
-4.27587
-4.27525
-4.2741
-4.27357
-4.27395
-4.27415
-4.27414
-4.27391
-4.27394
-4.27397
-4.27425
-4.27451
-4.27526
-4.27548
-4.27505
-4.26042
-4.26077
-4.26214
-4.26231
-4.26252
-4.26293
-4.26362
-4.26467
-4.26573
-4.26593
-4.26532
-4.26457
-4.26455
-4.26549
-4.26618
-4.26655
-4.26592
-4.26446
-4.26354
-4.26462
-4.26634
-4.26795
-4.26952
-4.27002
-4.26969
-4.26905
-4.26845
-4.26773
-4.26727
-4.26645
-4.26552
-4.26445
-4.26324
-4.26261
-4.26269
-4.26288
-4.2623
-4.2613
-4.26078
-4.26095
-4.26115
-4.26081
-4.26032
-4.26018
-4.2603
-4.26066
-4.26094
-4.26157
-4.26165
-4.26109
-4.24946
-4.24992
-4.25129
-4.25138
-4.25171
-4.25205
-4.25268
-4.25377
-4.25489
-4.25508
-4.25444
-4.25372
-4.2538
-4.25469
-4.25534
-4.25549
-4.25486
-4.25359
-4.25265
-4.25366
-4.25538
-4.25688
-4.25841
-4.25889
-4.25866
-4.25795
-4.25739
-4.25664
-4.2562
-4.25539
-4.25441
-4.25329
-4.2522
-4.25183
-4.25201
-4.25216
-4.25167
-4.25075
-4.2503
-4.25045
-4.25061
-4.25001
-4.24927
-4.24904
-4.24924
-4.2497
-4.24995
-4.25043
-4.2505
-4.24994
-4.23866
-4.23909
-4.24035
-4.24054
-4.24092
-4.24133
-4.24197
-4.24309
-4.24409
-4.24437
-4.24383
-4.24292
-4.24289
-4.24366
-4.2444
-4.24441
-4.24374
-4.24267
-4.24188
-4.24277
-4.24435
-4.24569
-4.24701
-4.24756
-4.24755
-4.24692
-4.24634
-4.24562
-4.24494
-4.24398
-4.243
-4.24201
-4.24126
-4.24113
-4.24134
-4.24134
-4.2409
-4.24004
-4.23963
-4.23987
-4.23993
-4.23911
-4.23824
-4.23787
-4.23821
-4.23889
-4.23918
-4.23943
-4.23946
-4.23898
-4.22814
-4.2284
-4.22942
-4.22974
-4.23013
-4.23067
-4.23146
-4.23252
-4.23338
-4.23385
-4.23348
-4.23234
-4.23203
-4.23268
-4.2334
-4.23332
-4.23269
-4.23183
-4.23123
-4.23193
-4.2333
-4.23453
-4.23559
-4.23629
-4.23642
-4.23591
-4.23532
-4.23465
-4.23374
-4.2326
-4.23151
-4.23082
-4.2304
-4.23046
-4.23077
-4.23062
-4.23003
-4.22921
-4.22882
-4.22915
-4.22909
-4.22812
-4.22719
-4.22677
-4.22727
-4.22824
-4.22873
-4.22875
-4.22865
-4.22833
-4.21795
-4.21802
-4.21874
-4.21908
-4.21954
-4.22016
-4.22115
-4.22212
-4.22282
-4.22343
-4.22323
-4.22208
-4.22144
-4.22188
-4.22242
-4.22237
-4.22188
-4.22116
-4.22071
-4.22121
-4.22232
-4.2234
-4.22431
-4.22506
-4.22517
-4.22482
-4.22428
-4.22365
-4.22281
-4.22155
-4.2204
-4.21995
-4.21969
-4.21986
-4.2203
-4.2201
-4.21921
-4.21835
-4.21803
-4.2183
-4.2181
-4.21713
-4.21628
-4.21602
-4.21661
-4.21781
-4.21857
-4.21837
-4.21811
-4.21805
-4.20802
-4.208
-4.20845
-4.20869
-4.20921
-4.20998
-4.21111
-4.21202
-4.21251
-4.21307
-4.21307
-4.21204
-4.21117
-4.21129
-4.21171
-4.2117
-4.21134
-4.21078
-4.21042
-4.21067
-4.21141
-4.21229
-4.213
-4.21367
-4.2138
-4.21366
-4.21327
-4.21279
-4.2122
-4.21094
-4.20981
-4.20944
-4.20925
-4.2094
-4.20989
-4.20972
-4.20866
-4.20774
-4.20746
-4.20761
-4.20728
-4.2064
-4.20576
-4.20576
-4.20635
-4.20762
-4.20847
-4.20819
-4.20791
-4.20812
-4.19827
-4.19824
-4.19856
-4.1987
-4.19915
-4.20008
-4.20131
-4.20217
-4.20243
-4.20287
-4.20302
-4.20215
-4.2012
-4.20102
-4.20136
-4.20131
-4.20104
-4.20063
-4.20039
-4.2004
-4.20069
-4.20132
-4.20173
-4.20223
-4.20257
-4.20265
-4.20247
-4.20224
-4.20187
-4.20066
-4.19955
-4.19919
-4.19902
-4.19922
-4.19972
-4.19954
-4.19857
-4.19759
-4.19729
-4.19734
-4.19697
-4.19617
-4.19573
-4.19591
-4.19651
-4.19767
-4.19837
-4.19812
-4.1979
-4.19826
-4.18858
-4.18863
-4.18893
-4.18906
-4.18942
-4.19041
-4.19166
-4.19241
-4.19249
-4.19284
-4.19299
-4.19246
-4.19147
-4.19105
-4.19126
-4.19119
-4.19104
-4.19068
-4.19052
-4.19038
-4.19035
-4.19063
-4.19076
-4.19109
-4.19161
-4.192
-4.19219
-4.19213
-4.19181
-4.1908
-4.18968
-4.18923
-4.18907
-4.18933
-4.18981
-4.18958
-4.18875
-4.18783
-4.18754
-4.18755
-4.18719
-4.1865
-4.18618
-4.18649
-4.1871
-4.18792
-4.18837
-4.18811
-4.1879
-4.18829
-4.17643
-4.17667
-4.17709
-4.17737
-4.17767
-4.17869
-4.1798
-4.18035
-4.1803
-4.18037
-4.18043
-4.18032
-4.17961
-4.17899
-4.17893
-4.17887
-4.17885
-4.17864
-4.17846
-4.17822
-4.178
-4.17794
-4.17788
-4.17815
-4.17868
-4.17937
-4.17985
-4.17995
-4.17967
-4.17898
-4.17797
-4.17733
-4.17706
-4.17728
-4.17752
-4.17729
-4.1767
-4.17605
-4.17585
-4.17582
-4.17553
-4.175
-4.17484
-4.17525
-4.17571
-4.17609
-4.17617
-4.17583
-4.17548
-4.17583
-4.16681
-4.16728
-4.16789
-4.16828
-4.16857
-4.16956
-4.17049
-4.17085
-4.17067
-4.17041
-4.17036
-4.1705
-4.1701
-4.16949
-4.16922
-4.16912
-4.16906
-4.16905
-4.169
-4.16874
-4.16843
-4.16827
-4.16828
-4.16856
-4.16909
-4.16966
-4.17011
-4.1703
-4.1702
-4.16975
-4.16888
-4.16817
-4.16774
-4.16775
-4.16775
-4.16764
-4.16736
-4.16685
-4.1667
-4.16672
-4.16648
-4.16603
-4.16597
-4.16632
-4.16671
-4.16691
-4.16664
-4.16622
-4.16591
-4.16617
-4.15762
-4.15823
-4.1589
-4.15932
-4.15964
-4.16051
-4.16126
-4.1615
-4.1612
-4.16077
-4.16055
-4.16075
-4.16058
-4.1602
-4.15983
-4.15967
-4.15956
-4.15965
-4.15974
-4.15949
-4.15916
-4.15897
-4.15915
-4.15942
-4.1598
-4.16017
-4.16058
-4.16082
-4.16086
-4.16058
-4.15991
-4.15929
-4.1587
-4.15853
-4.1584
-4.15832
-4.15819
-4.15789
-4.15776
-4.15782
-4.15767
-4.15733
-4.15729
-4.15749
-4.15772
-4.15781
-4.15743
-4.15694
-4.15679
-4.15701
-4.14881
-4.14937
-4.14988
-4.15031
-4.15068
-4.15132
-4.1519
-4.15215
-4.15188
-4.15132
-4.15103
-4.15114
-4.15123
-4.15113
-4.15076
-4.15065
-4.15057
-4.15064
-4.15077
-4.15053
-4.15015
-4.14988
-4.14997
-4.15024
-4.15054
-4.15093
-4.15132
-4.15156
-4.15157
-4.15145
-4.15103
-4.15055
-4.14993
-4.14974
-4.14961
-4.14938
-4.14921
-4.14914
-4.14913
-4.14926
-4.14922
-4.14894
-4.14881
-4.14884
-4.14882
-4.14871
-4.14838
-4.14804
-4.14804
-4.14826
-4.14018
-4.14062
-4.14101
-4.14131
-4.14165
-4.14225
-4.14273
-4.14289
-4.14255
-4.14197
-4.14174
-4.14189
-4.14211
-4.14201
-4.14173
-4.14185
-4.14186
-4.14193
-4.14208
-4.1419
-4.14147
-4.141
-4.14082
-4.14106
-4.14159
-4.14217
-4.14253
-4.14264
-4.14261
-4.14259
-4.14231
-4.1419
-4.14144
-4.14139
-4.14133
-4.14101
-4.14066
-4.1407
-4.1408
-4.14095
-4.1409
-4.14073
-4.14055
-4.14036
-4.14014
-4.13991
-4.13956
-4.13945
-4.13959
-4.13984
-4.12973
-4.12998
-4.13029
-4.13043
-4.13078
-4.13146
-4.13188
-4.1319
-4.13155
-4.13106
-4.13084
-4.1309
-4.13091
-4.13062
-4.13046
-4.1308
-4.13108
-4.13122
-4.13134
-4.13137
-4.13098
-4.13046
-4.13033
-4.13057
-4.13114
-4.13177
-4.13208
-4.13192
-4.13192
-4.13199
-4.13177
-4.13134
-4.13115
-4.13125
-4.1313
-4.13104
-4.13056
-4.13051
-4.13065
-4.1308
-4.13076
-4.13067
-4.13047
-4.13007
-4.12978
-4.12962
-4.12925
-4.12913
-4.1293
-4.12957
-4.12176
-4.12185
-4.12208
-4.12228
-4.12267
-4.12326
-4.12359
-4.12358
-4.12329
-4.1229
-4.12266
-4.12257
-4.1223
-4.12197
-4.12196
-4.12229
-4.1227
-4.12286
-4.12294
-4.12309
-4.1229
-4.1226
-4.12264
-4.12286
-4.12326
-4.12371
-4.12387
-4.12354
-4.12349
-4.1237
-4.12367
-4.1234
-4.12327
-4.12326
-4.12327
-4.12311
-4.12273
-4.12258
-4.12271
-4.12294
-4.12298
-4.12284
-4.12258
-4.1222
-4.12198
-4.12178
-4.12141
-4.12133
-4.12158
-4.12175
-4.1147
-4.11464
-4.11482
-4.11512
-4.11544
-4.11578
-4.11592
-4.11588
-4.11561
-4.11523
-4.11501
-4.11483
-4.11453
-4.1144
-4.11444
-4.11467
-4.1151
-4.11524
-4.11522
-4.1153
-4.11522
-4.1152
-4.11538
-4.11564
-4.11585
-4.11598
-4.11594
-4.11567
-4.11566
-4.11594
-4.11603
-4.11593
-4.11577
-4.11562
-4.11544
-4.11527
-4.11507
-4.11508
-4.11533
-4.11565
-4.1157
-4.11553
-4.11526
-4.11508
-4.115
-4.11475
-4.11441
-4.11441
-4.11474
-4.11487
-4.10853
-4.10838
-4.10852
-4.10883
-4.10902
-4.10901
-4.1089
-4.10875
-4.10849
-4.10811
-4.10789
-4.10777
-4.10761
-4.10766
-4.10771
-4.10786
-4.10817
-4.10833
-4.1082
-4.10811
-4.1081
-4.1083
-4.10859
-4.10866
-4.10869
-4.10861
-4.10842
-4.10828
-4.10844
-4.10874
-4.10882
-4.10868
-4.1085
-4.10832
-4.10809
-4.10795
-4.10798
-4.10826
-4.10863
-4.10883
-4.10882
-4.10873
-4.10869
-4.10875
-4.10872
-4.1085
-4.10831
-4.10841
-4.10865
-4.10874
-4.10298
-4.10278
-4.10268
-4.10284
-4.10294
-4.10277
-4.10249
-4.10222
-4.10206
-4.10187
-4.10159
-4.10146
-4.10152
-4.10178
-4.10185
-4.10187
-4.10196
-4.10199
-4.10187
-4.10176
-4.10179
-4.10204
-4.10222
-4.10216
-4.10212
-4.10198
-4.10166
-4.10146
-4.10165
-4.10195
-4.10209
-4.10197
-4.10175
-4.10159
-4.10147
-4.10155
-4.10183
-4.10239
-4.10279
-4.10278
-4.10262
-4.10259
-4.10277
-4.10285
-4.10278
-4.10268
-4.1027
-4.10305
-4.10329
-4.10322
-4.09777
-4.09739
-4.09698
-4.09692
-4.09689
-4.09685
-4.09667
-4.09643
-4.09636
-4.09643
-4.09606
-4.09577
-4.09604
-4.0965
-4.09663
-4.09658
-4.0965
-4.09639
-4.09616
-4.09587
-4.0958
-4.09601
-4.09634
-4.09638
-4.09625
-4.09611
-4.09585
-4.09559
-4.09559
-4.09576
-4.09584
-4.09566
-4.09543
-4.09536
-4.09546
-4.09582
-4.09622
-4.09682
-4.09717
-4.09721
-4.09709
-4.0971
-4.09719
-4.09714
-4.09701
-4.09708
-4.0973
-4.09775
-4.09802
-4.09798
-4.09062
-4.09024
-4.0898
-4.08953
-4.08942
-4.08936
-4.08934
-4.08946
-4.0895
-4.08965
-4.08928
-4.08896
-4.08913
-4.0894
-4.08945
-4.08955
-4.0897
-4.08946
-4.08904
-4.08864
-4.08855
-4.08887
-4.08916
-4.08938
-4.08931
-4.08923
-4.08903
-4.08876
-4.0885
-4.08831
-4.08825
-4.08815
-4.08792
-4.08797
-4.08833
-4.08873
-4.08907
-4.08934
-4.08981
-4.09014
-4.09006
-4.09012
-4.08995
-4.08983
-4.08993
-4.09021
-4.09039
-4.0904
-4.09053
-4.09068
-4.08536
-4.085
-4.08474
-4.0848
-4.08481
-4.08462
-4.08447
-4.08464
-4.08471
-4.08477
-4.08463
-4.08446
-4.08429
-4.08427
-4.08439
-4.08452
-4.08462
-4.0845
-4.08423
-4.08403
-4.08396
-4.08415
-4.08434
-4.08457
-4.08471
-4.08456
-4.08441
-4.08429
-4.08419
-4.0839
-4.08369
-4.08352
-4.08325
-4.08327
-4.08349
-4.08374
-4.08407
-4.08441
-4.08481
-4.08503
-4.08495
-4.08503
-4.08494
-4.08471
-4.0848
-4.08508
-4.08532
-4.08535
-4.08537
-4.08547
-4.39091
-4.39084
-4.39118
-4.39138
-4.39161
-4.3923
-4.39321
-4.39304
-4.39249
-4.39209
-4.39215
-4.39259
-4.39291
-4.3933
-4.39389
-4.39409
-4.39334
-4.3925
-4.39148
-4.39083
-4.3911
-4.39184
-4.3925
-4.39284
-4.39246
-4.3917
-4.39079
-4.38959
-4.38835
-4.38771
-4.38749
-4.38755
-4.38724
-4.38647
-4.38603
-4.38582
-4.38553
-4.38536
-4.3856
-4.38595
-4.38662
-4.3878
-4.38866
-4.38924
-4.38991
-4.39048
-4.39056
-4.39059
-4.39071
-4.39086
-4.39087
-4.3908
-4.39114
-4.39134
-4.39156
-4.39225
-4.39316
-4.39299
-4.39244
-4.39205
-4.39209
-4.39254
-4.39285
-4.39324
-4.39384
-4.39403
-4.39328
-4.39246
-4.39144
-4.39079
-4.39105
-4.39179
-4.39245
-4.39279
-4.39241
-4.39166
-4.39076
-4.38955
-4.38831
-4.38767
-4.38746
-4.3875
-4.3872
-4.38644
-4.38599
-4.38578
-4.38549
-4.38532
-4.38556
-4.3859
-4.38657
-4.38776
-4.38861
-4.38919
-4.38987
-4.39042
-4.39051
-4.39053
-4.39067
-4.39081
-4.39078
-4.39071
-4.39104
-4.39123
-4.39143
-4.39211
-4.39307
-4.39288
-4.39234
-4.39192
-4.39197
-4.39243
-4.39273
-4.39309
-4.39368
-4.3939
-4.39314
-4.39236
-4.39133
-4.39066
-4.39091
-4.39166
-4.39231
-4.39269
-4.3923
-4.39158
-4.39069
-4.38948
-4.38823
-4.3876
-4.38737
-4.38742
-4.38713
-4.38633
-4.38588
-4.38567
-4.38537
-4.38519
-4.38543
-4.38578
-4.38642
-4.38762
-4.38848
-4.38905
-4.38974
-4.3903
-4.39035
-4.39038
-4.39054
-4.3907
-4.39062
-4.39057
-4.39088
-4.39106
-4.3912
-4.39186
-4.39291
-4.39273
-4.39219
-4.3917
-4.39178
-4.39225
-4.39251
-4.3928
-4.39339
-4.39368
-4.39293
-4.39219
-4.39113
-4.39039
-4.39066
-4.39147
-4.3921
-4.39255
-4.39214
-4.39145
-4.39056
-4.38934
-4.38809
-4.38746
-4.38722
-4.38735
-4.38707
-4.38618
-4.38572
-4.3855
-4.38517
-4.38498
-4.38525
-4.38561
-4.38623
-4.38742
-4.38827
-4.38886
-4.38955
-4.39012
-4.3901
-4.39014
-4.39036
-4.39051
-4.39023
-4.3902
-4.39048
-4.39064
-4.3907
-4.39136
-4.3925
-4.39237
-4.39181
-4.39123
-4.39131
-4.39182
-4.39201
-4.39221
-4.39284
-4.39321
-4.39248
-4.39179
-4.39067
-4.38981
-4.39015
-4.39108
-4.39164
-4.3922
-4.39176
-4.39105
-4.39013
-4.38894
-4.38771
-4.38706
-4.38683
-4.38711
-4.38687
-4.38584
-4.38534
-4.38511
-4.38475
-4.38455
-4.38487
-4.38525
-4.38585
-4.38703
-4.38783
-4.38846
-4.38916
-4.38972
-4.38959
-4.38966
-4.38994
-4.39009
-4.38965
-4.38966
-4.38989
-4.39004
-4.39003
-4.39067
-4.39186
-4.39183
-4.39127
-4.39059
-4.39067
-4.39118
-4.39134
-4.39146
-4.39213
-4.39258
-4.39186
-4.39119
-4.39001
-4.38904
-4.38948
-4.39053
-4.39103
-4.39167
-4.3912
-4.39045
-4.38947
-4.38832
-4.38714
-4.38642
-4.38624
-4.38673
-4.3865
-4.38533
-4.3848
-4.38457
-4.38418
-4.38398
-4.38434
-4.38475
-4.38537
-4.3865
-4.38724
-4.38791
-4.38862
-4.38917
-4.38895
-4.38902
-4.38931
-4.38948
-4.3884
-4.38846
-4.38863
-4.38874
-4.38863
-4.38924
-4.3905
-4.39064
-4.39007
-4.38931
-4.38933
-4.38983
-4.38991
-4.38997
-4.3907
-4.39122
-4.39056
-4.38989
-4.38861
-4.38753
-4.38815
-4.38935
-4.38979
-4.39051
-4.39004
-4.38915
-4.38805
-4.387
-4.38587
-4.38503
-4.38498
-4.3858
-4.38559
-4.38421
-4.38364
-4.38344
-4.38297
-4.38279
-4.38321
-4.38368
-4.38437
-4.38537
-4.38602
-4.38675
-4.38746
-4.38797
-4.38764
-4.38771
-4.38799
-4.38812
-4.38653
-4.38671
-4.38682
-4.38685
-4.38666
-4.38719
-4.38854
-4.3889
-4.38832
-4.38754
-4.38743
-4.38784
-4.38787
-4.3879
-4.38869
-4.38925
-4.38867
-4.38801
-4.38662
-4.38551
-4.3863
-4.38766
-4.38807
-4.38882
-4.38834
-4.38726
-4.38605
-4.3851
-4.38399
-4.38303
-4.38318
-4.38436
-4.3841
-4.38255
-4.38198
-4.3818
-4.38128
-4.38112
-4.3816
-4.38217
-4.38294
-4.38377
-4.38429
-4.38507
-4.38578
-4.38623
-4.3858
-4.38586
-4.38609
-4.38615
-4.38415
-4.38448
-4.38458
-4.38446
-4.38422
-4.38462
-4.38609
-4.38669
-4.38611
-4.38538
-4.3851
-4.3853
-4.38528
-4.38534
-4.38619
-4.38674
-4.38626
-4.38563
-4.38418
-4.38312
-4.38407
-4.38555
-4.38597
-4.38671
-4.3862
-4.3849
-4.38359
-4.38274
-4.3816
-4.38058
-4.38093
-4.38244
-4.38212
-4.38044
-4.37994
-4.37978
-4.37918
-4.37908
-4.37966
-4.38036
-4.38119
-4.3818
-4.38215
-4.383
-4.38365
-4.38405
-4.38357
-4.38362
-4.38378
-4.38368
-4.38141
-4.38197
-4.38207
-4.38177
-4.3815
-4.38178
-4.38338
-4.3842
-4.38363
-4.38297
-4.38252
-4.38241
-4.38237
-4.38247
-4.38337
-4.38388
-4.38351
-4.38288
-4.38144
-4.38056
-4.38159
-4.38317
-4.38364
-4.38432
-4.38373
-4.38228
-4.38091
-4.3801
-4.3789
-4.37788
-4.37836
-4.38014
-4.37976
-4.37806
-4.3777
-4.37754
-4.37687
-4.37681
-4.37753
-4.37841
-4.37926
-4.37961
-4.37981
-4.38069
-4.38125
-4.3816
-4.38109
-4.38118
-4.38125
-4.38093
-4.37845
-4.37928
-4.3794
-4.37899
-4.3787
-4.37888
-4.38063
-4.38162
-4.3811
-4.3805
-4.37988
-4.37938
-4.37934
-4.37949
-4.38042
-4.38088
-4.38056
-4.37994
-4.3786
-4.37801
-4.37903
-4.38067
-4.38127
-4.38184
-4.38112
-4.37962
-4.37822
-4.37741
-4.37611
-4.37508
-4.37563
-4.37758
-4.37723
-4.3756
-4.37542
-4.37523
-4.3745
-4.37444
-4.37532
-4.37645
-4.37731
-4.37741
-4.37743
-4.37833
-4.37876
-4.37905
-4.37855
-4.37871
-4.37864
-4.37806
-4.37539
-4.37651
-4.37666
-4.37625
-4.37595
-4.37608
-4.37799
-4.37909
-4.37868
-4.37813
-4.3773
-4.37639
-4.37633
-4.37651
-4.37744
-4.37788
-4.37758
-4.37694
-4.37579
-4.37555
-4.37652
-4.37818
-4.37896
-4.3794
-4.37852
-4.37711
-4.37569
-4.37483
-4.37337
-4.3723
-4.37287
-4.37488
-4.37464
-4.37316
-4.37316
-4.37293
-4.37215
-4.37201
-4.37305
-4.37451
-4.37537
-4.3753
-4.37512
-4.37595
-4.37625
-4.3765
-4.37603
-4.37625
-4.37602
-4.37514
-4.37228
-4.37362
-4.37387
-4.37359
-4.37326
-4.37341
-4.37547
-4.37663
-4.37641
-4.37589
-4.3748
-4.37353
-4.37337
-4.37355
-4.37446
-4.37493
-4.37463
-4.37396
-4.3731
-4.37322
-4.3741
-4.37573
-4.37676
-4.37705
-4.37608
-4.37479
-4.37336
-4.37235
-4.37071
-4.3696
-4.37013
-4.37214
-4.37205
-4.37074
-4.37091
-4.37059
-4.36976
-4.3695
-4.37071
-4.37256
-4.37346
-4.37327
-4.37289
-4.37355
-4.37375
-4.37395
-4.37357
-4.37379
-4.37337
-4.37218
-4.36913
-4.37058
-4.37099
-4.37094
-4.37057
-4.37083
-4.37304
-4.37417
-4.37414
-4.37376
-4.37234
-4.37077
-4.37046
-4.37057
-4.37145
-4.372
-4.37168
-4.37102
-4.3705
-4.37093
-4.37172
-4.37328
-4.37458
-4.37472
-4.37376
-4.37262
-4.37115
-4.36992
-4.3681
-4.36695
-4.36744
-4.36937
-4.36945
-4.36829
-4.36862
-4.36818
-4.36719
-4.36683
-4.36821
-4.3705
-4.3715
-4.37121
-4.3706
-4.37103
-4.37114
-4.37132
-4.37108
-4.37129
-4.37065
-4.36918
-4.36591
-4.36734
-4.36797
-4.36819
-4.36779
-4.36822
-4.37056
-4.3716
-4.3717
-4.37155
-4.36981
-4.36805
-4.3675
-4.36743
-4.36832
-4.369
-4.36867
-4.36804
-4.36789
-4.36857
-4.36924
-4.37072
-4.37227
-4.37228
-4.37145
-4.3705
-4.36893
-4.3674
-4.36543
-4.36427
-4.36472
-4.36656
-4.36675
-4.36574
-4.3662
-4.36556
-4.36434
-4.36393
-4.36547
-4.36816
-4.36932
-4.36893
-4.3681
-4.36825
-4.3683
-4.36855
-4.36845
-4.36864
-4.36779
-4.36613
-4.36254
-4.36383
-4.3647
-4.3652
-4.36481
-4.36543
-4.36787
-4.36873
-4.36894
-4.36906
-4.36711
-4.36521
-4.36439
-4.36403
-4.36496
-4.36581
-4.36554
-4.36493
-4.36513
-4.36595
-4.36652
-4.36792
-4.36966
-4.36958
-4.36902
-4.36827
-4.36653
-4.36468
-4.36259
-4.36145
-4.36189
-4.36362
-4.36388
-4.363
-4.36354
-4.36268
-4.3611
-4.36068
-4.36241
-4.36544
-4.36672
-4.3662
-4.36516
-4.36509
-4.36508
-4.36551
-4.36557
-4.36574
-4.3647
-4.36298
-4.35895
-4.36003
-4.36109
-4.36187
-4.3615
-4.36233
-4.36478
-4.36543
-4.36575
-4.36609
-4.36406
-4.36209
-4.36098
-4.36031
-4.36127
-4.36231
-4.36218
-4.36158
-4.36206
-4.36294
-4.36342
-4.36478
-4.3666
-4.36648
-4.36625
-4.36574
-4.36383
-4.3617
-4.35949