/*--------------------------------*- C++ -*----------------------------------*\
| =========                 |                                                 |
| \\      /  F ield         | OpenFOAM: The Open Source CFD Toolbox           |
|  \\    /   O peration     | Version:  4.x                                   |
|   \\  /    A nd           | Web:      www.OpenFOAM.org                      |
|    \\/     M anipulation  |                                                 |
\*---------------------------------------------------------------------------*/
FoamFile
{
    version     2.0;
    format      ascii;
    class       volScalarField;
    location    "1000";
    object      pPrime2Mean;
}
// * * * * * * * * * * * * * * * * * * * * * * * * * * * * * * * * * * * * * //

dimensions      [0 4 -4 0 0 0 0];

internalField   nonuniform List<scalar> 
237650
(
8.82183
8.82499
8.82441
8.82535
8.82607
8.8225
8.81853
8.82179
8.82623
8.82648
8.82575
8.82819
8.82937
8.8289
8.82785
8.82613
8.823
8.82111
8.82122
8.82126
8.82184
8.82151
8.82088
8.82023
8.81816
8.81511
8.81649
8.81924
8.82371
8.82888
8.83103
8.83006
8.82884
8.82519
8.82065
8.82018
8.82142
8.82157
8.81909
8.81589
8.81393
8.81494
8.81781
8.82486
8.83026
8.82899
8.82557
8.82248
8.8175
8.81745
8.82181
8.82491
8.82435
8.82536
8.82613
8.82256
8.81855
8.82182
8.82625
8.82653
8.82579
8.82823
8.82936
8.82897
8.82789
8.8262
8.82294
8.8211
8.82122
8.82125
8.82182
8.82148
8.82088
8.82022
8.81811
8.81508
8.81648
8.81922
8.82371
8.82891
8.83103
8.82997
8.82872
8.82508
8.82059
8.82014
8.82137
8.82147
8.81896
8.81577
8.8138
8.81487
8.81771
8.82482
8.83018
8.82896
8.8256
8.82255
8.81749
8.81744
8.82179
8.82493
8.82433
8.82549
8.82626
8.82264
8.81847
8.82179
8.82632
8.8266
8.82584
8.8283
8.82937
8.82905
8.82789
8.82622
8.82285
8.8211
8.82127
8.82132
8.82187
8.82148
8.82089
8.82027
8.8181
8.81502
8.81644
8.81913
8.82364
8.82901
8.83118
8.83003
8.82872
8.8251
8.82049
8.82004
8.82133
8.82144
8.81887
8.81568
8.81372
8.81488
8.8176
8.82481
8.83016
8.82891
8.82563
8.8227
8.81744
8.81737
8.82172
8.8251
8.82439
8.82588
8.8265
8.82284
8.81821
8.82153
8.82639
8.82677
8.826
8.82846
8.82944
8.82913
8.82776
8.82615
8.82272
8.82124
8.82151
8.8217
8.82211
8.8216
8.82092
8.82035
8.81814
8.81493
8.81631
8.8188
8.82333
8.82914
8.83158
8.83035
8.82884
8.82525
8.82032
8.81971
8.82119
8.82141
8.8188
8.81558
8.81372
8.81503
8.81741
8.82484
8.83011
8.82867
8.82563
8.82309
8.81743
8.81707
8.82161
8.82543
8.82462
8.8265
8.8268
8.82308
8.81789
8.82101
8.82649
8.82705
8.82631
8.82882
8.8297
8.82901
8.82741
8.82584
8.82268
8.82176
8.82216
8.82249
8.82263
8.82195
8.82106
8.82037
8.81825
8.81492
8.81609
8.81815
8.8226
8.829
8.83214
8.83106
8.82912
8.82553
8.82013
8.81908
8.82074
8.82128
8.81884
8.81553
8.814
8.81541
8.81739
8.82488
8.82992
8.82806
8.82539
8.8236
8.81759
8.81651
8.82151
8.82598
8.82515
8.82722
8.82717
8.82336
8.81774
8.82043
8.82673
8.82765
8.82697
8.82956
8.8304
8.82878
8.82692
8.82538
8.82294
8.8228
8.82326
8.82364
8.82338
8.82253
8.82137
8.82022
8.81846
8.81515
8.81594
8.81714
8.82127
8.82838
8.83286
8.83215
8.8295
8.82581
8.81991
8.81809
8.81985
8.82094
8.81897
8.81552
8.81461
8.8161
8.81777
8.82495
8.82949
8.82697
8.82462
8.82397
8.81799
8.81584
8.82148
8.82692
8.82612
8.82807
8.82772
8.82372
8.81799
8.82008
8.8273
8.829
8.82827
8.83082
8.83166
8.82869
8.82646
8.82493
8.82363
8.82424
8.82475
8.82498
8.82425
8.82314
8.82174
8.81988
8.81871
8.81561
8.81594
8.81583
8.81942
8.82736
8.83368
8.83364
8.82997
8.82593
8.81951
8.81675
8.8186
8.82043
8.81918
8.81565
8.81557
8.8172
8.8188
8.82521
8.82875
8.82545
8.82324
8.82384
8.8185
8.81536
8.8216
8.82788
8.82715
8.8288
8.82828
8.824
8.81842
8.8201
8.82799
8.8306
8.82975
8.83207
8.83284
8.82872
8.82624
8.82467
8.82442
8.82544
8.82593
8.82586
8.82491
8.8236
8.82201
8.81962
8.81886
8.81603
8.816
8.81478
8.81793
8.82655
8.83432
8.83499
8.8305
8.82594
8.81902
8.81565
8.81758
8.82005
8.81932
8.81587
8.81656
8.81837
8.82005
8.82546
8.82803
8.82414
8.82191
8.82337
8.81886
8.81524
8.82214
8.82961
8.82893
8.82992
8.8292
8.82441
8.81918
8.82064
8.82931
8.83372
8.83263
8.83424
8.83476
8.82892
8.82612
8.82443
8.82572
8.82722
8.82761
8.82695
8.82588
8.82436
8.82253
8.81939
8.81891
8.81676
8.81613
8.81332
8.81598
8.82554
8.83535
8.83733
8.83161
8.82594
8.81801
8.81395
8.816
8.81956
8.81948
8.81644
8.81844
8.82062
8.8225
8.8258
8.82671
8.82211
8.81986
8.8224
8.8193
8.81544
8.82325
8.83177
8.83083
8.83099
8.83019
8.82476
8.81996
8.82161
8.83097
8.83764
8.83646
8.83684
8.83691
8.82931
8.8262
8.82431
8.82696
8.82894
8.82923
8.82804
8.82701
8.82525
8.82328
8.81927
8.81873
8.81762
8.81628
8.81204
8.81454
8.82489
8.83658
8.84011
8.83317
8.82598
8.81685
8.81211
8.81422
8.81908
8.8197
8.81732
8.82087
8.82351
8.82556
8.82615
8.82505
8.82004
8.81781
8.82126
8.8197
8.81607
8.82517
8.83437
8.83257
8.8318
8.83117
8.82503
8.82067
8.82295
8.83283
8.84204
8.84111
8.83978
8.83893
8.8298
8.82643
8.82431
8.82784
8.83033
8.83071
8.82931
8.82823
8.82628
8.82426
8.81929
8.81847
8.81849
8.81641
8.81112
8.81384
8.82479
8.83812
8.8432
8.83523
8.82619
8.81579
8.81022
8.81227
8.8186
8.82008
8.81858
8.82375
8.82689
8.82908
8.82658
8.82325
8.8181
8.81603
8.82027
8.82016
8.81719
8.82808
8.83746
8.8342
8.83249
8.83218
8.82516
8.82128
8.8246
8.83488
8.84668
8.84618
8.843
8.84055
8.83024
8.82666
8.82442
8.8281
8.83111
8.83197
8.83076
8.82955
8.82744
8.82555
8.8197
8.81826
8.81908
8.81639
8.8106
8.81401
8.82536
8.83989
8.84621
8.8377
8.82662
8.815
8.80851
8.81037
8.8183
8.82077
8.82032
8.82702
8.83061
8.83293
8.82697
8.82143
8.81641
8.8148
8.81965
8.82081
8.81904
8.83215
8.841
8.83609
8.83335
8.83333
8.82523
8.8218
8.82655
8.83718
8.85131
8.85113
8.84654
8.84197
8.83062
8.82682
8.82463
8.8276
8.83107
8.83276
8.83227
8.83092
8.82872
8.82712
8.82054
8.81815
8.81908
8.81594
8.81036
8.81495
8.82644
8.84167
8.84866
8.84026
8.82731
8.81454
8.80708
8.80871
8.8184
8.82195
8.82267
8.8306
8.83453
8.83679
8.8272
8.81971
8.81505
8.81437
8.81954
8.82185
8.82186
8.8372
8.84513
8.8387
8.83468
8.83462
8.82551
8.82237
8.82863
8.83965
8.85553
8.85554
8.85047
8.84372
8.83101
8.82694
8.82487
8.82643
8.83012
8.833
8.83372
8.83226
8.82994
8.82862
8.82179
8.81807
8.81832
8.81489
8.81022
8.8163
8.82787
8.84318
8.85014
8.84246
8.82822
8.81442
8.80594
8.8075
8.81904
8.82371
8.82565
8.83429
8.83835
8.8402
8.82739
8.81814
8.81416
8.81487
8.82029
8.82341
8.82579
8.84271
8.84985
8.84217
8.83659
8.83604
8.82614
8.82307
8.83042
8.84186
8.85892
8.85918
8.85457
8.8458
8.83148
8.82702
8.82489
8.82482
8.82839
8.83279
8.83501
8.83337
8.83084
8.82967
8.82317
8.81786
8.81684
8.8132
8.80998
8.81772
8.82947
8.84412
8.8504
8.84387
8.82915
8.81448
8.80507
8.80686
8.82027
8.82595
8.82908
8.8378
8.84169
8.84287
8.8277
8.81697
8.81402
8.81629
8.82218
8.8255
8.83042
8.84803
8.85487
8.84616
8.83883
8.83752
8.82708
8.8238
8.83156
8.84334
8.86122
8.86205
8.85825
8.84777
8.83187
8.82695
8.82436
8.82313
8.82611
8.83219
8.83587
8.83396
8.83103
8.82987
8.82427
8.81732
8.81475
8.81086
8.80958
8.81899
8.83102
8.84436
8.84958
8.84423
8.82988
8.81453
8.80446
8.80685
8.82192
8.8284
8.83261
8.84072
8.84421
8.84467
8.82822
8.81648
8.8148
8.81838
8.82505
8.82795
8.83486
8.85252
8.8596
8.84992
8.84089
8.83894
8.82827
8.82455
8.83195
8.84384
8.86216
8.86416
8.86098
8.84906
8.83202
8.82657
8.82299
8.82131
8.82358
8.83108
8.83581
8.8337
8.83023
8.829
8.82482
8.81653
8.81228
8.8081
8.80907
8.81996
8.83241
8.84408
8.8481
8.84356
8.83019
8.81455
8.80423
8.80744
8.82376
8.83091
8.83588
8.8429
8.84582
8.84551
8.82893
8.81695
8.81646
8.82072
8.82845
8.83058
8.8386
8.856
8.8634
8.85285
8.84228
8.84003
8.82976
8.82549
8.83195
8.84338
8.86157
8.86531
8.86237
8.84904
8.83167
8.82568
8.82068
8.81909
8.82109
8.82932
8.83428
8.83226
8.82839
8.82727
8.82482
8.81579
8.80998
8.80547
8.80846
8.82076
8.83372
8.84355
8.84642
8.84206
8.83016
8.8146
8.80457
8.80859
8.82548
8.8334
8.83862
8.84439
8.84673
8.84551
8.82999
8.81839
8.81874
8.82295
8.83186
8.83331
8.84161
8.85856
8.86559
8.85452
8.84278
8.84053
8.83174
8.82678
8.83193
8.8421
8.85946
8.86519
8.86204
8.84745
8.83064
8.82409
8.81766
8.81624
8.81886
8.82699
8.83124
8.82962
8.82567
8.82521
8.82438
8.8152
8.80839
8.80354
8.80805
8.8216
8.83503
8.84288
8.84463
8.84014
8.83007
8.81488
8.80561
8.81029
8.82686
8.83579
8.84078
8.84543
8.84732
8.84532
8.83161
8.82056
8.82121
8.82493
8.83483
8.8362
8.84429
8.86021
8.8657
8.85454
8.84228
8.84029
8.83394
8.82831
8.83187
8.83998
8.85609
8.86351
8.85974
8.84456
8.82898
8.82184
8.81433
8.81296
8.81693
8.82432
8.82738
8.82611
8.82256
8.82303
8.82344
8.81465
8.80761
8.80281
8.80846
8.82253
8.83599
8.84186
8.8427
8.83822
8.8301
8.8155
8.80746
8.81246
8.82781
8.83776
8.84222
8.84613
8.84784
8.84565
8.83368
8.8233
8.82354
8.82676
8.83711
8.8391
8.84684
8.86114
8.86424
8.85297
8.84087
8.83921
8.83564
8.82957
8.8312
8.83699
8.85176
8.8602
8.85567
8.84091
8.82683
8.81919
8.81099
8.80982
8.81533
8.82178
8.82361
8.82239
8.81968
8.82092
8.82185
8.81414
8.80756
8.80348
8.80998
8.82359
8.83594
8.84037
8.84066
8.83646
8.83002
8.81655
8.81012
8.81488
8.82824
8.83893
8.84296
8.8464
8.84835
8.84659
8.83618
8.82657
8.82558
8.82876
8.83842
8.84163
8.84919
8.86159
8.86209
8.85064
8.83888
8.83737
8.83622
8.83024
8.82971
8.83343
8.84688
8.85549
8.85031
8.83692
8.82425
8.81648
8.80805
8.80729
8.814
8.81976
8.82071
8.81915
8.81732
8.81899
8.81987
8.81389
8.80817
8.80529
8.81237
8.82466
8.83473
8.8386
8.83844
8.83464
8.8296
8.81801
8.81329
8.81712
8.8281
8.83901
8.84307
8.84607
8.8487
8.84778
8.83898
8.83028
8.82761
8.83086
8.83884
8.84329
8.85104
8.86149
8.85982
8.84836
8.8368
8.83502
8.8358
8.83049
8.82783
8.82982
8.84198
8.84974
8.84439
8.83283
8.82145
8.81394
8.80579
8.80548
8.81285
8.81808
8.81877
8.81639
8.81545
8.81761
8.81798
8.81381
8.80937
8.80769
8.81496
8.82551
8.83298
8.83662
8.83587
8.83257
8.8289
8.81973
8.8163
8.81895
8.82759
8.83803
8.84229
8.84509
8.84865
8.84858
8.84162
8.83419
8.8298
8.83265
8.83898
8.84362
8.85208
8.86079
8.85808
8.84655
8.83489
8.8325
8.83453
8.83015
8.82568
8.82661
8.83716
8.84335
8.83852
8.82892
8.81894
8.81167
8.80434
8.80427
8.81173
8.81641
8.81759
8.81405
8.81398
8.81689
8.81666
8.81394
8.81085
8.80987
8.81704
8.82607
8.83099
8.83406
8.83293
8.83041
8.82824
8.82136
8.81833
8.82007
8.82669
8.83622
8.84057
8.84369
8.84801
8.84869
8.84375
8.83742
8.83189
8.83384
8.83857
8.8424
8.85209
8.85962
8.85706
8.84526
8.83301
8.82979
8.8322
8.82874
8.8233
8.82414
8.83234
8.83687
8.8332
8.82544
8.81687
8.80983
8.80399
8.80383
8.81059
8.81474
8.81669
8.81255
8.81316
8.81659
8.81622
8.81437
8.8122
8.81142
8.81836
8.82625
8.8286
8.83089
8.83
8.82854
8.82779
8.82247
8.81904
8.82017
8.82538
8.8337
8.8381
8.84211
8.8469
8.84828
8.84534
8.83954
8.8337
8.83452
8.83775
8.84047
8.85114
8.85798
8.85634
8.84426
8.83107
8.82684
8.82894
8.82633
8.82101
8.82259
8.82777
8.83068
8.82836
8.82234
8.81489
8.80854
8.80484
8.80432
8.8096
8.8134
8.81606
8.81267
8.81333
8.8165
8.81651
8.81474
8.813
8.81239
8.81885
8.82551
8.82591
8.82734
8.82752
8.82698
8.82725
8.8227
8.81873
8.81937
8.824
8.83061
8.83534
8.84042
8.8455
8.84774
8.84646
8.84104
8.83523
8.8349
8.83695
8.83914
8.84939
8.85597
8.85554
8.84369
8.82977
8.82427
8.82554
8.82363
8.81918
8.82181
8.82401
8.82517
8.82379
8.81946
8.81278
8.80794
8.80658
8.80561
8.80923
8.81307
8.81634
8.81464
8.815
8.81691
8.817
8.8146
8.81299
8.81293
8.81842
8.8235
8.82289
8.82377
8.82534
8.82541
8.82608
8.822
8.81785
8.8183
8.82285
8.82722
8.83264
8.83849
8.84399
8.84697
8.84707
8.84218
8.83631
8.835
8.83649
8.83926
8.84756
8.85342
8.85438
8.84394
8.83029
8.82293
8.8231
8.82183
8.81841
8.82083
8.82129
8.82084
8.8197
8.81669
8.81077
8.80794
8.80834
8.80742
8.8097
8.81407
8.81778
8.81838
8.81861
8.8184
8.81744
8.81394
8.81226
8.81292
8.81711
8.82068
8.81966
8.82067
8.82295
8.82325
8.82378
8.82031
8.81695
8.81742
8.82168
8.82434
8.83023
8.83625
8.84218
8.84571
8.84699
8.84274
8.83705
8.83516
8.8364
8.84014
8.84619
8.85016
8.85277
8.84666
8.83455
8.82369
8.82303
8.82279
8.82002
8.82065
8.81944
8.81751
8.81613
8.81342
8.80879
8.80848
8.80981
8.81036
8.81178
8.81667
8.821
8.82425
8.82525
8.82233
8.81828
8.8132
8.81092
8.8117
8.81431
8.81648
8.81606
8.8172
8.81921
8.81877
8.81953
8.81738
8.81634
8.81734
8.81993
8.82218
8.82768
8.83346
8.83981
8.84379
8.84608
8.84258
8.83769
8.83554
8.8367
8.84102
8.84438
8.84825
8.85233
8.85093
8.83972
8.826
8.82518
8.82565
8.82321
8.82228
8.81924
8.81615
8.81424
8.81127
8.80784
8.80865
8.81079
8.81268
8.81464
8.81915
8.82371
8.82828
8.83056
8.82648
8.81958
8.81334
8.80976
8.8097
8.81157
8.81318
8.8139
8.81448
8.8156
8.81477
8.81584
8.8149
8.81612
8.81774
8.81884
8.82137
8.82646
8.83227
8.83838
8.84247
8.84514
8.84266
8.83863
8.83642
8.83711
8.84114
8.84302
8.84724
8.85272
8.85469
8.8438
8.82958
8.82859
8.82913
8.82701
8.82458
8.81971
8.81533
8.81291
8.81
8.80774
8.80895
8.81222
8.81517
8.81837
8.82208
8.82572
8.83071
8.8348
8.83073
8.82181
8.81432
8.80857
8.80744
8.80905
8.81093
8.81221
8.81222
8.81243
8.81195
8.81289
8.81331
8.81622
8.81799
8.81874
8.82177
8.82655
8.83264
8.83763
8.84148
8.84439
8.84334
8.84052
8.838
8.83743
8.8405
8.84212
8.84648
8.85251
8.85542
8.84551
8.83376
8.83223
8.83217
8.83046
8.82721
8.82074
8.81496
8.81197
8.80994
8.8085
8.81039
8.81482
8.81917
8.8231
8.82546
8.82743
8.83181
8.83709
8.83425
8.82476
8.81544
8.80764
8.80587
8.80741
8.80966
8.81091
8.81032
8.81007
8.81075
8.81195
8.81356
8.81674
8.81833
8.81968
8.82356
8.82818
8.83419
8.83772
8.84109
8.84423
8.84445
8.84259
8.83971
8.8377
8.83975
8.84162
8.84582
8.85093
8.85323
8.84572
8.83737
8.8353
8.83518
8.83388
8.83026
8.82233
8.81499
8.81175
8.81108
8.8101
8.81295
8.81891
8.82423
8.82787
8.82908
8.82973
8.83297
8.8377
8.836
8.82724
8.81622
8.80711
8.80503
8.80668
8.80902
8.81013
8.80908
8.80871
8.81057
8.81266
8.81473
8.81769
8.81951
8.82182
8.82652
8.83123
8.83639
8.83877
8.84124
8.8441
8.84505
8.84353
8.8406
8.83799
8.83919
8.84147
8.84538
8.84895
8.8512
8.84644
8.84055
8.8381
8.83861
8.83752
8.8335
8.82429
8.81535
8.81256
8.8128
8.81265
8.81672
8.82356
8.82869
8.8314
8.83262
8.83285
8.83494
8.83778
8.83594
8.82812
8.81695
8.80776
8.80516
8.8067
8.80872
8.80989
8.80895
8.80881
8.81073
8.81381
8.81624
8.8192
8.82201
8.82539
8.83047
8.83521
8.83879
8.83987
8.84109
8.84355
8.84494
8.84329
8.84064
8.83834
8.83891
8.84174
8.8453
8.84765
8.84992
8.84727
8.84286
8.84053
8.84207
8.84156
8.83655
8.82663
8.81683
8.81411
8.8147
8.81591
8.82074
8.82727
8.83163
8.83414
8.83578
8.83613
8.83734
8.83753
8.83468
8.82805
8.81837
8.81014
8.8068
8.80726
8.80861
8.80988
8.8095
8.80993
8.81149
8.81506
8.81862
8.82166
8.82565
8.83006
8.83475
8.83899
8.84137
8.84094
8.84078
8.84286
8.8441
8.84253
8.84074
8.83883
8.83905
8.8422
8.84563
8.84657
8.848
8.84705
8.84408
8.84253
8.84473
8.84516
8.83913
8.82929
8.81992
8.81589
8.81627
8.819
8.82425
8.8299
8.83392
8.8371
8.83899
8.83925
8.83944
8.83741
8.83353
8.82833
8.8207
8.81354
8.80969
8.80863
8.80874
8.80991
8.81047
8.81079
8.81263
8.81686
8.82164
8.82501
8.82933
8.83439
8.83864
8.842
8.84382
8.84259
8.841
8.84226
8.8428
8.84187
8.8414
8.83998
8.84007
8.84322
8.84768
8.84613
8.84566
8.84573
8.84427
8.84299
8.84579
8.84704
8.84123
8.83224
8.8239
8.81861
8.81806
8.82153
8.82739
8.83268
8.8373
8.84125
8.84286
8.84216
8.84106
8.83817
8.83376
8.8297
8.82453
8.8189
8.81507
8.81157
8.8097
8.8106
8.81203
8.81219
8.81451
8.8199
8.82547
8.82903
8.83257
8.83753
8.8416
8.84432
8.84528
8.84356
8.84083
8.84129
8.84182
8.84133
8.84213
8.84217
8.84371
8.84673
8.84981
8.84724
8.84569
8.84528
8.84377
8.8419
8.84435
8.84575
8.84114
8.83357
8.82628
8.82123
8.82053
8.82371
8.8292
8.83488
8.84049
8.84455
8.84595
8.84482
8.84226
8.83909
8.83469
8.83101
8.82762
8.82324
8.81936
8.81506
8.81232
8.81221
8.81351
8.81437
8.81644
8.82199
8.82777
8.83122
8.83421
8.8386
8.84215
8.84439
8.84493
8.84316
8.84049
8.84083
8.84161
8.84144
8.84268
8.84394
8.84657
8.84966
8.8517
8.84915
8.84743
8.84582
8.8431
8.84049
8.84101
8.84196
8.83906
8.83419
8.82884
8.82479
8.82425
8.82716
8.83193
8.8372
8.84355
8.84752
8.84902
8.84765
8.84397
8.84031
8.83597
8.83286
8.83078
8.827
8.82315
8.8191
8.81609
8.81489
8.81535
8.81682
8.81893
8.82362
8.82887
8.8327
8.8355
8.83934
8.84229
8.84358
8.84386
8.84273
8.84068
8.84081
8.84181
8.8422
8.84377
8.84621
8.84874
8.85156
8.85307
8.85173
8.84977
8.84719
8.84297
8.83948
8.83845
8.83896
8.83746
8.83514
8.83166
8.8289
8.82859
8.83138
8.83537
8.83942
8.84553
8.85001
8.8517
8.85024
8.84628
8.84226
8.83811
8.83539
8.83386
8.83047
8.8266
8.82296
8.82025
8.81827
8.81797
8.81979
8.8221
8.82577
8.83012
8.83427
8.837
8.8403
8.84265
8.84318
8.84315
8.84241
8.84107
8.84125
8.84232
8.84355
8.84573
8.84851
8.85063
8.85261
8.85372
8.85311
8.85135
8.84854
8.84376
8.83979
8.83853
8.83883
8.83869
8.83797
8.83527
8.8328
8.83246
8.83509
8.83852
8.84143
8.84687
8.8521
8.85438
8.8534
8.84985
8.8454
8.84131
8.83839
8.83616
8.83304
8.82939
8.82621
8.82395
8.82198
8.82184
8.82345
8.82572
8.8286
8.83256
8.83615
8.83894
8.84184
8.84357
8.84355
8.84343
8.84303
8.84261
8.84284
8.84358
8.84503
8.84738
8.85021
8.85228
8.8535
8.85417
8.85373
8.85263
8.85062
8.84686
8.84376
8.84234
8.8423
8.84289
8.84233
8.83954
8.83722
8.8372
8.83933
8.84249
8.84568
8.85036
8.85545
8.85901
8.85966
8.85652
8.85136
8.8463
8.84239
8.83911
8.83588
8.83271
8.83054
8.82853
8.82726
8.82728
8.82869
8.83029
8.83241
8.83615
8.83913
8.84147
8.84392
8.84473
8.84476
8.84527
8.84581
8.84649
8.84647
8.8464
8.84708
8.84907
8.85157
8.854
8.85454
8.85521
8.8556
8.855
8.85332
8.85067
8.84846
8.84722
8.84703
8.84703
8.84535
8.84229
8.84025
8.84034
8.84246
8.8458
8.84975
8.85462
8.85955
8.86344
8.86522
8.86247
8.85688
8.85124
8.84645
8.8423
8.83891
8.83622
8.83488
8.83364
8.83225
8.83195
8.83325
8.83448
8.83611
8.83869
8.84078
8.8435
8.84593
8.84664
8.84688
8.84786
8.84945
8.85041
8.85031
8.84981
8.85018
8.85143
8.8524
8.85376
8.85473
8.85594
8.85741
8.85767
8.85635
8.85431
8.85294
8.85225
8.85187
8.85099
8.84855
8.84567
8.84372
8.84345
8.84521
8.84819
8.85242
8.8579
8.86305
8.86667
8.86886
8.86667
8.86078
8.85501
8.85024
8.8459
8.84264
8.84057
8.83979
8.83919
8.83808
8.83727
8.8379
8.83942
8.84107
8.84284
8.84462
8.84722
8.84908
8.8492
8.84927
8.85059
8.85263
8.85373
8.85363
8.85323
8.85319
8.85379
8.85387
8.85391
8.8547
8.85706
8.85874
8.85968
8.85952
8.85842
8.8574
8.85659
8.8562
8.85511
8.85282
8.85025
8.84801
8.84759
8.84877
8.85083
8.85437
8.85973
8.8646
8.86759
8.8693
8.86731
8.86188
8.85704
8.85301
8.8492
8.84665
8.84534
8.84462
8.84412
8.84335
8.84222
8.84266
8.84501
8.84719
8.84936
8.85122
8.8527
8.85336
8.85259
8.85244
8.85348
8.85521
8.85627
8.85625
8.85578
8.85585
8.85628
8.85631
8.85592
8.85602
8.85861
8.86047
8.86129
8.86168
8.86162
8.86089
8.86048
8.86036
8.85926
8.85726
8.85476
8.85248
8.85213
8.85333
8.85429
8.85666
8.86107
8.86524
8.86727
8.86715
8.86544
8.86162
8.85833
8.85533
8.85224
8.85066
8.84972
8.84898
8.84883
8.8483
8.84685
8.84701
8.84986
8.85313
8.85604
8.8581
8.85871
8.85792
8.85635
8.85637
8.85709
8.85782
8.8582
8.85797
8.85775
8.85863
8.8588
8.85817
8.85695
8.85691
8.85913
8.86078
8.86172
8.86216
8.86262
8.86356
8.86435
8.86375
8.8616
8.85929
8.85691
8.85535
8.85583
8.85823
8.85892
8.85998
8.86272
8.86525
8.86641
8.86565
8.86443
8.86151
8.85846
8.85559
8.85422
8.85376
8.85341
8.85295
8.85281
8.85217
8.85087
8.85104
8.8539
8.85764
8.86037
8.8618
8.86214
8.86031
8.85919
8.86075
8.86098
8.86045
8.86038
8.85977
8.85938
8.86028
8.86002
8.85879
8.85687
8.85684
8.85935
8.86095
8.86332
8.86332
8.86262
8.86375
8.8655
8.86591
8.86259
8.8591
8.85733
8.85666
8.85769
8.86009
8.86053
8.862
8.86362
8.86441
8.86483
8.86507
8.86401
8.8615
8.85766
8.85454
8.85454
8.85507
8.85611
8.85801
8.85839
8.85688
8.85642
8.8561
8.85751
8.86032
8.8606
8.8606
8.8617
8.86105
8.86203
8.86539
8.8653
8.86332
8.86238
8.86116
8.86016
8.86043
8.86005
8.85884
8.85762
8.85828
8.86138
8.86274
8.86414
8.86428
8.86426
8.86315
8.86326
8.86365
8.86195
8.86081
8.85974
8.85877
8.85889
8.85901
8.85957
8.86138
8.86295
8.86354
8.86342
8.86336
8.86244
8.86025
8.8579
8.85665
8.85603
8.85639
8.85778
8.85898
8.85972
8.85974
8.85964
8.85923
8.85972
8.86095
8.86037
8.86025
8.86119
8.86191
8.86363
8.86558
8.86526
8.86373
8.86122
8.85984
8.85942
8.86034
8.86101
8.86031
8.86
8.86056
8.82393
8.82477
8.82412
8.82641
8.82802
8.82531
8.82277
8.82502
8.82831
8.8291
8.83187
8.83551
8.83792
8.83926
8.8376
8.83451
8.83058
8.8275
8.82739
8.82842
8.82771
8.82649
8.82624
8.82517
8.82166
8.81877
8.81976
8.8228
8.82634
8.82863
8.82906
8.82758
8.82742
8.82443
8.8206
8.82032
8.81986
8.81767
8.81395
8.81088
8.80993
8.81313
8.81911
8.82542
8.82772
8.82642
8.82306
8.82045
8.81993
8.82162
8.82387
8.8247
8.8241
8.82639
8.82795
8.82526
8.82265
8.82498
8.82827
8.82906
8.83178
8.83544
8.83788
8.83915
8.83745
8.8345
8.83049
8.82744
8.8274
8.82834
8.8277
8.82646
8.82628
8.82519
8.82166
8.8189
8.81981
8.82281
8.8264
8.82866
8.82907
8.82758
8.82756
8.82458
8.82066
8.82032
8.81987
8.81768
8.81398
8.81089
8.80992
8.81308
8.81903
8.82534
8.82765
8.8264
8.82309
8.8205
8.81989
8.82163
8.82388
8.8247
8.82405
8.82646
8.82795
8.82508
8.82233
8.82477
8.82828
8.82902
8.83164
8.83533
8.83776
8.83901
8.83715
8.83446
8.83037
8.82732
8.82735
8.82836
8.82784
8.82649
8.82637
8.82543
8.82176
8.81915
8.81996
8.82289
8.8266
8.8288
8.82932
8.82763
8.82795
8.82506
8.82072
8.82038
8.81998
8.81788
8.81417
8.81093
8.80996
8.81302
8.8189
8.82525
8.8276
8.82641
8.82321
8.82066
8.8199
8.8217
8.82406
8.82483
8.82402
8.82672
8.82805
8.82482
8.82188
8.82436
8.82834
8.82898
8.83151
8.83525
8.83759
8.83885
8.8367
8.8342
8.83018
8.82721
8.82732
8.82869
8.82826
8.82663
8.82647
8.82583
8.82203
8.81925
8.8201
8.82287
8.82673
8.8289
8.82986
8.82785
8.82843
8.82565
8.82076
8.82034
8.82012
8.81828
8.81451
8.81102
8.81013
8.81309
8.81876
8.82511
8.82754
8.82642
8.82338
8.82099
8.82001
8.82171
8.8244
8.82509
8.82413
8.82724
8.82832
8.82461
8.82134
8.82375
8.82847
8.82905
8.8315
8.8353
8.83748
8.83863
8.83616
8.83366
8.83005
8.82733
8.8275
8.82937
8.82886
8.82692
8.8266
8.82621
8.82249
8.81922
8.8201
8.82261
8.82641
8.82871
8.83063
8.82844
8.82884
8.8261
8.82079
8.82008
8.82009
8.81876
8.81499
8.81118
8.81059
8.81345
8.81866
8.82496
8.82747
8.82629
8.82342
8.82157
8.82038
8.82157
8.82468
8.82541
8.82434
8.82774
8.82866
8.82458
8.82092
8.82322
8.82864
8.82926
8.83167
8.83547
8.8375
8.83834
8.83576
8.83311
8.83006
8.82767
8.82791
8.8301
8.8294
8.82729
8.82679
8.82634
8.82303
8.81938
8.81997
8.82215
8.82568
8.82826
8.83132
8.82919
8.82907
8.82633
8.82073
8.81961
8.81985
8.81908
8.81548
8.81139
8.81122
8.81397
8.81872
8.82487
8.82738
8.82605
8.82324
8.82213
8.82087
8.82137
8.82498
8.82609
8.8248
8.82848
8.82929
8.82476
8.82056
8.82267
8.82903
8.8299
8.83227
8.83596
8.83781
8.83783
8.83528
8.83235
8.83037
8.82853
8.82889
8.8312
8.83011
8.82789
8.82712
8.82628
8.82395
8.8199
8.81969
8.82116
8.82401
8.82735
8.83229
8.83064
8.82936
8.82645
8.82049
8.81866
8.81923
8.81935
8.81625
8.81186
8.81237
8.815
8.81914
8.82483
8.82717
8.82546
8.82262
8.82279
8.82172
8.82104
8.82516
8.82723
8.82556
8.82931
8.83009
8.82509
8.82071
8.82251
8.82966
8.83124
8.83353
8.83686
8.83855
8.83741
8.83475
8.8317
8.83107
8.82985
8.83023
8.83222
8.83078
8.82861
8.82748
8.82598
8.82492
8.82068
8.81946
8.81984
8.82175
8.82626
8.83329
8.83259
8.82985
8.82639
8.81995
8.81739
8.81834
8.81943
8.8171
8.81263
8.8138
8.81651
8.82005
8.82488
8.82687
8.82458
8.82157
8.82296
8.82255
8.82077
8.82539
8.82886
8.82665
8.83022
8.83108
8.82545
8.82141
8.82289
8.83065
8.83356
8.83562
8.83823
8.83966
8.83706
8.8341
8.83121
8.83214
8.83149
8.83172
8.83288
8.83141
8.82955
8.82795
8.82559
8.82572
8.82157
8.8193
8.81847
8.8193
8.8252
8.83436
8.83499
8.83074
8.82623
8.81918
8.81587
8.81724
8.8194
8.81789
8.8137
8.81559
8.81867
8.82159
8.82493
8.82642
8.82339
8.82013
8.82243
8.82318
8.8207
8.82594
8.83086
8.828
8.83115
8.83214
8.82583
8.82233
8.82385
8.83209
8.83689
8.83856
8.83995
8.84095
8.83682
8.83341
8.83085
8.83342
8.83324
8.83313
8.83322
8.83209
8.83075
8.82867
8.82517
8.82627
8.82243
8.81913
8.81708
8.81722
8.82446
8.83556
8.83771
8.83201
8.82611
8.81823
8.81417
8.81584
8.81931
8.81858
8.81504
8.81786
8.82157
8.82381
8.82508
8.82579
8.82194
8.81854
8.82148
8.82357
8.82097
8.82711
8.83321
8.82948
8.83201
8.83318
8.82621
8.82315
8.82526
8.83391
8.84094
8.84228
8.84196
8.84244
8.83671
8.83276
8.83061
8.83462
8.83491
8.83437
8.83355
8.83291
8.83212
8.82957
8.82473
8.82643
8.82317
8.81903
8.81577
8.81589
8.82428
8.83695
8.84063
8.83365
8.82611
8.81721
8.81237
8.81414
8.81919
8.81926
8.81664
8.82068
8.82502
8.82665
8.82547
8.82491
8.8203
8.81702
8.82057
8.82382
8.82166
8.82914
8.83594
8.83113
8.83289
8.83425
8.82658
8.82388
8.827
8.83605
8.84544
8.84663
8.84425
8.84398
8.83664
8.8322
8.83057
8.83546
8.83627
8.83542
8.83414
8.83398
8.83359
8.83053
8.82427
8.82606
8.82372
8.81887
8.81479
8.81548
8.82481
8.83854
8.84359
8.83565
8.82624
8.81633
8.81057
8.81228
8.81909
8.82
8.81855
8.82398
8.82879
8.82996
8.82611
8.8238
8.81859
8.81586
8.81996
8.82408
8.82286
8.83223
8.83914
8.83312
8.83389
8.83536
8.82688
8.82452
8.82902
8.83853
8.85009
8.85119
8.8469
8.84543
8.83646
8.83182
8.83075
8.83564
8.83696
8.83617
8.83494
8.83527
8.83504
8.83153
8.82395
8.8252
8.8239
8.81852
8.81418
8.81593
8.82608
8.84019
8.84621
8.83795
8.82663
8.81574
8.80894
8.8105
8.8192
8.82099
8.82082
8.82771
8.83277
8.8336
8.82683
8.82252
8.81693
8.81532
8.81983
8.82457
8.82477
8.83643
8.84296
8.83575
8.83508
8.83651
8.82721
8.82516
8.83112
8.84121
8.85446
8.8554
8.85
8.84701
8.83627
8.83161
8.83108
8.83507
8.83677
8.83654
8.83588
8.83665
8.83634
8.83252
8.82382
8.82386
8.8235
8.81778
8.8137
8.81698
8.82778
8.84168
8.84811
8.84021
8.82738
8.81544
8.80756
8.80907
8.81976
8.82243
8.8236
8.83174
8.83681
8.83741
8.82756
8.82119
8.81558
8.81562
8.82043
8.82552
8.82765
8.84144
8.84749
8.83922
8.83668
8.83767
8.82765
8.82586
8.83307
8.84374
8.8581
8.85888
8.85352
8.84883
8.83618
8.83143
8.83132
8.83392
8.83575
8.83662
8.8369
8.83789
8.83733
8.83349
8.82385
8.82232
8.82232
8.81654
8.8131
8.81817
8.8296
8.8428
8.84896
8.84199
8.8284
8.81528
8.80637
8.80813
8.82084
8.8244
8.82684
8.83583
8.84067
8.84105
8.82835
8.82
8.81482
8.81676
8.82196
8.82707
8.83147
8.8467
8.85255
8.84329
8.83875
8.8388
8.82828
8.82652
8.83449
8.84561
8.86084
8.86164
8.85704
8.85056
8.83608
8.83107
8.83107
8.83249
8.83405
8.83653
8.83799
8.83877
8.83781
8.83433
8.82406
8.8208
8.82044
8.81477
8.81224
8.81922
8.83128
8.84335
8.8487
8.84291
8.82946
8.81517
8.80525
8.80775
8.82246
8.82677
8.83032
8.83959
8.84407
8.84412
8.8292
8.81919
8.81494
8.81858
8.8244
8.82911
8.83567
8.85159
8.85753
8.84732
8.84106
8.8399
8.82912
8.82707
8.83508
8.84638
8.86255
8.86388
8.85996
8.85163
8.83578
8.83037
8.82996
8.83089
8.83192
8.83625
8.83888
8.83901
8.83747
8.83468
8.82457
8.81939
8.81806
8.81247
8.81123
8.82009
8.83263
8.84332
8.84748
8.84295
8.8303
8.8151
8.80439
8.80792
8.82439
8.8294
8.83379
8.84268
8.84672
8.84625
8.83017
8.81904
8.81604
8.82071
8.82735
8.83145
8.83958
8.85571
8.86147
8.8506
8.84308
8.84092
8.83025
8.82765
8.83493
8.84596
8.8629
8.86542
8.8618
8.85151
8.8351
8.8291
8.82772
8.82885
8.82958
8.83548
8.83892
8.83823
8.83604
8.83395
8.82529
8.81834
8.81556
8.80988
8.81026
8.82085
8.83374
8.84285
8.84571
8.84221
8.83079
8.81515
8.80408
8.80866
8.82632
8.83225
8.83708
8.84504
8.84861
8.84737
8.8313
8.81979
8.81799
8.8228
8.83045
8.83393
8.84279
8.85882
8.86374
8.85267
8.84426
8.8416
8.83189
8.82844
8.83445
8.84459
8.86157
8.86577
8.86209
8.84991
8.83381
8.82719
8.82439
8.82594
8.82714
8.83395
8.83741
8.83631
8.83352
8.83208
8.82609
8.81786
8.81345
8.80748
8.80949
8.8216
8.83472
8.8421
8.84385
8.84087
8.83104
8.81535
8.80463
8.81005
8.82793
8.83516
8.83997
8.84675
8.84992
8.84783
8.83284
8.82137
8.82046
8.82484
8.83346
8.83636
8.84534
8.86083
8.86459
8.85338
8.84428
8.84158
8.83392
8.8295
8.83384
8.84237
8.85857
8.86456
8.86055
8.84699
8.83179
8.82464
8.82047
8.8221
8.82467
8.83156
8.83427
8.83327
8.83028
8.8296
8.82658
8.8177
8.81197
8.80579
8.80932
8.82248
8.83557
8.84114
8.84204
8.83923
8.83128
8.8159
8.80622
8.81207
8.82906
8.83772
8.84229
8.84797
8.85087
8.84816
8.83484
8.82353
8.8229
8.82673
8.83612
8.83868
8.8474
8.8619
8.86421
8.85294
8.84327
8.84082
8.8358
8.83062
8.83274
8.83927
8.85438
8.86173
8.85716
8.84316
8.82928
8.82165
8.81636
8.81782
8.82228
8.82869
8.83033
8.82955
8.82688
8.827
8.82614
8.81739
8.81102
8.80529
8.81023
8.82376
8.83602
8.83985
8.84025
8.8376
8.83155
8.81696
8.80873
8.8145
8.82966
8.83951
8.8439
8.84876
8.8514
8.84868
8.83706
8.82613
8.82491
8.82849
8.83807
8.84093
8.84924
8.86243
8.86309
8.85193
8.84166
8.8394
8.83692
8.8314
8.83092
8.83542
8.84946
8.85747
8.85233
8.83889
8.82645
8.81852
8.81247
8.8138
8.82011
8.82593
8.82672
8.82581
8.82372
8.82443
8.82471
8.81704
8.81077
8.80611
8.81225
8.8254
8.83588
8.83841
8.83837
8.83612
8.83151
8.81851
8.81199
8.81691
8.82966
8.84025
8.84474
8.84903
8.85149
8.84936
8.83931
8.82891
8.82654
8.83023
8.83919
8.84282
8.8509
8.8626
8.86165
8.85075
8.83993
8.83743
8.83695
8.83162
8.82875
8.83128
8.84423
8.85202
8.84671
8.83462
8.82349
8.81553
8.80923
8.8106
8.81806
8.82341
8.82405
8.82244
8.82098
8.82223
8.82276
8.81682
8.81133
8.80797
8.81488
8.82691
8.83517
8.83701
8.83617
8.83446
8.83106
8.8205
8.81545
8.81898
8.8292
8.83996
8.8448
8.84855
8.85114
8.84998
8.84157
8.83184
8.82818
8.83177
8.83965
8.84392
8.85219
8.86221
8.86014
8.8496
8.83824
8.8352
8.83603
8.83112
8.82661
8.82749
8.83892
8.84555
8.84084
8.83056
8.82081
8.81295
8.80683
8.80823
8.81596
8.82092
8.82217
8.81942
8.81878
8.82075
8.82086
8.81676
8.81255
8.81016
8.8174
8.82791
8.83377
8.83526
8.83367
8.83247
8.83036
8.82254
8.81813
8.8203
8.82846
8.83888
8.84379
8.84727
8.85038
8.85023
8.84364
8.83521
8.83002
8.83288
8.83955
8.8437
8.85275
8.86125
8.85876
8.84836
8.83652
8.8328
8.83417
8.82963
8.82432
8.82435
8.83345
8.83864
8.83518
8.82682
8.8186
8.81083
8.80548
8.80678
8.8138
8.81846
8.82069
8.81696
8.81712
8.81995
8.81965
8.81697
8.81394
8.81207
8.81946
8.8284
8.83147
8.83286
8.83112
8.83044
8.82965
8.82399
8.81931
8.82068
8.82743
8.83702
8.84164
8.84538
8.84926
8.85001
8.84539
8.839
8.83197
8.8336
8.8389