/*--------------------------------*- C++ -*----------------------------------*\
| =========                 |                                                 |
| \\      /  F ield         | OpenFOAM: The Open Source CFD Toolbox           |
|  \\    /   O peration     | Version:  4.x                                   |
|   \\  /    A nd           | Web:      www.OpenFOAM.org                      |
|    \\/     M anipulation  |                                                 |
\*---------------------------------------------------------------------------*/
FoamFile
{
    version     2.0;
    format      ascii;
    class       volScalarField;
    location    "250";
    object      nut;
}
// * * * * * * * * * * * * * * * * * * * * * * * * * * * * * * * * * * * * * //

dimensions      [0 2 -1 0 0 0 0];

internalField   nonuniform List<scalar> 
112000
(
0.000357471
0.000333206
0.000306969
0.000282914
0.000260751
0.000240297
0.000221378
0.000203855
0.000187624
0.000172502
0.000158441
0.000145616
0.000133987
0.000123372
0.000113737
0.000104325
9.60018e-05
8.83362e-05
8.12575e-05
7.70776e-05
1.33857e-06
2.61413e-06
2.86457e-06
2.81234e-06
2.68649e-06
2.50202e-06
2.33298e-06
2.17417e-06
1.99216e-06
1.77752e-06
1.50543e-06
1.25237e-06
1.03326e-06
9.14314e-07
8.87672e-07
9.07076e-07
9.07661e-07
1.00377e-06
1.06986e-06
1.14707e-06
1.62102e-06
2.26419e-06
2.56309e-06
2.65219e-06
2.65314e-06
2.61004e-06
2.52245e-06
2.41564e-06
2.33101e-06
2.30979e-06
2.18582e-06
1.93001e-06
1.64253e-06
1.38085e-06
1.20692e-06
1.09193e-06
1.10333e-06
1.20413e-06
1.22578e-06
1.2174e-06
2.57201e-06
3.05588e-06
3.23442e-06
3.29345e-06
3.19912e-06
3.06009e-06
2.93707e-06
2.81679e-06
2.68504e-06
2.53982e-06
2.399e-06
2.26561e-06
2.12396e-06
1.92083e-06
1.64686e-06
1.41563e-06
1.26329e-06
1.23184e-06
1.48217e-06
1.86267e-06
2.97772e-06
2.94078e-06
3.26454e-06
3.65182e-06
3.94554e-06
3.89555e-06
3.69075e-06
3.50071e-06
3.32984e-06
3.22561e-06
3.13195e-06
3.00956e-06
2.86122e-06
2.68797e-06
2.46087e-06
2.16032e-06
1.85403e-06
1.69515e-06
1.86967e-06
2.22172e-06
3.34371e-06
3.09414e-06
3.25292e-06
3.6189e-06
3.98869e-06
4.34504e-06
4.58194e-06
4.58047e-06
4.45391e-06
4.25106e-06
4.04043e-06
3.85071e-06
3.66896e-06
3.47338e-06
3.25004e-06
2.97822e-06
2.65841e-06
2.3875e-06
2.35921e-06
2.55404e-06
3.26742e-06
2.91812e-06
3.17539e-06
3.72133e-06
4.37931e-06
4.99881e-06
5.37996e-06
5.49194e-06
5.3779e-06
5.15798e-06
4.94154e-06
4.74125e-06
4.54212e-06
4.33511e-06
4.10336e-06
3.82746e-06
3.50849e-06
3.20063e-06
3.03771e-06
3.085e-06
3.15905e-06
2.97971e-06
3.27773e-06
3.95986e-06
4.45066e-06
5.09613e-06
5.53405e-06
6.00381e-06
6.28704e-06
6.32693e-06
6.199e-06
5.96243e-06
5.70141e-06
5.45201e-06
5.19838e-06
4.91613e-06
4.59411e-06
4.25433e-06
3.97737e-06
3.88461e-06
2.93287e-06
3.00619e-06
3.20992e-06
3.89734e-06
4.56983e-06
5.10768e-06
5.70236e-06
6.2544e-06
6.81373e-06
7.30143e-06
7.52344e-06
7.58709e-06
7.41183e-06
7.07698e-06
6.70135e-06
6.32401e-06
5.93843e-06
5.54441e-06
5.17639e-06
4.97206e-06
2.63206e-06
2.85105e-06
3.30823e-06
3.71724e-06
4.83834e-06
5.25633e-06
6.1814e-06
6.90531e-06
7.82223e-06
8.49989e-06
9.07895e-06
9.29005e-06
9.24036e-06
8.99707e-06
8.62567e-06
8.21386e-06
7.76895e-06
7.28301e-06
6.78268e-06
6.43809e-06
2.31363e-06
2.38761e-06
3.23365e-06
3.74138e-06
4.69187e-06
5.70068e-06
6.44206e-06
7.57161e-06
8.35572e-06
9.08499e-06
9.6605e-06
1.01487e-05
1.05115e-05
1.07185e-05
1.07613e-05
1.05411e-05
1.01419e-05
9.66508e-06
9.12685e-06
8.68767e-06
2.14665e-06
2.3213e-06
2.9325e-06
3.86629e-06
4.70506e-06
5.91848e-06
6.92377e-06
7.95605e-06
8.95202e-06
9.89928e-06
1.07494e-05
1.1495e-05
1.20252e-05
1.23651e-05
1.24855e-05
1.24442e-05
1.22439e-05
1.18717e-05
1.13556e-05
1.09635e-05
1.8609e-06
2.30898e-06
2.94031e-06
3.6592e-06
4.75879e-06
5.82097e-06
7.19384e-06
8.35218e-06
9.51259e-06
1.06019e-05
1.18138e-05
1.29063e-05
1.38947e-05
1.46868e-05
1.51922e-05
1.53869e-05
1.52726e-05
1.48991e-05
1.43302e-05
1.3881e-05
1.51642e-06
1.73129e-06
2.53621e-06
3.42081e-06
4.30361e-06
5.47733e-06
6.64971e-06
8.17452e-06
9.86518e-06
1.12437e-05
1.26672e-05
1.41203e-05
1.55015e-05
1.67061e-05
1.76582e-05
1.82237e-05
1.83988e-05
1.82147e-05
1.7732e-05
1.731e-05
1.17206e-06
1.89628e-06
2.42323e-06
3.10827e-06
3.99079e-06
5.05132e-06
6.09637e-06
7.15527e-06
8.74289e-06
1.0858e-05
1.28907e-05
1.49892e-05
1.68813e-05
1.86368e-05
2.01226e-05
2.1323e-05
2.20982e-05
2.23669e-05
2.21554e-05
2.18674e-05
1.22157e-06
1.73006e-06
2.45313e-06
3.35898e-06
4.20828e-06
5.2191e-06
6.49413e-06
7.8628e-06
9.25207e-06
1.05027e-05
1.2343e-05
1.44275e-05
1.69615e-05
1.97239e-05
2.24298e-05
2.46983e-05
2.64143e-05
2.75716e-05
2.80738e-05
2.8119e-05
9.71183e-07
1.53496e-06
2.26211e-06
3.03796e-06
3.77135e-06
4.7988e-06
6.04696e-06
7.47921e-06
9.28608e-06
1.13708e-05
1.33999e-05
1.5459e-05
1.75993e-05
2.0013e-05
2.30272e-05
2.6857e-05
3.09622e-05
3.43895e-05
3.65146e-05
3.78574e-05
8.38238e-07
1.41853e-06
2.0397e-06
2.68867e-06
3.50581e-06
4.46298e-06
5.55378e-06
6.83738e-06
8.31971e-06
1.00407e-05
1.21272e-05
1.46386e-05
1.76061e-05
2.09977e-05
2.46795e-05
2.86944e-05
3.3841e-05
4.08711e-05
4.84933e-05
5.71285e-05
7.09072e-07
1.24902e-06
1.81614e-06
2.43419e-06
3.21729e-06
4.11718e-06
5.20644e-06
6.47734e-06
7.97262e-06
9.71414e-06
1.17096e-05
1.39649e-05
1.65513e-05
1.96882e-05
2.38349e-05
2.95311e-05
3.70403e-05
4.71523e-05
6.30321e-05
7.24823e-05
6.10831e-07
1.15174e-06
1.67905e-06
2.27102e-06
3.00693e-06
3.86792e-06
4.8651e-06
6.04393e-06
7.42141e-06
9.01684e-06
1.08646e-05
1.3017e-05
1.56016e-05
1.88011e-05
2.28278e-05
2.80815e-05
3.58215e-05
4.95751e-05
8.15105e-05
0.000146762
0.000381587
0.000347671
0.000320078
0.000294765
0.000271469
0.000249996
0.000230146
0.000211814
0.000194852
0.000179118
0.000164469
0.000151105
0.000139026
0.000128022
0.000117683
0.000108161
9.95467e-05
9.15208e-05
8.41408e-05
7.945e-05
1.32334e-06
2.59732e-06
2.84503e-06
2.78608e-06
2.67156e-06
2.51689e-06
2.37884e-06
2.24447e-06
2.02386e-06
1.81093e-06
1.62613e-06
1.44892e-06
1.24462e-06
1.08092e-06
1.05188e-06
1.08533e-06
1.21167e-06
1.14765e-06
1.19697e-06
1.24508e-06
1.60899e-06
2.20908e-06
2.59336e-06
2.80088e-06
2.83604e-06
2.7882e-06
2.74135e-06
2.72618e-06
2.57376e-06
2.29811e-06
2.02657e-06
1.78926e-06
1.55154e-06
1.34367e-06
1.2689e-06
1.22047e-06
1.18632e-06
1.14478e-06
1.28496e-06
1.51162e-06
2.49154e-06
2.93531e-06
3.20945e-06
3.38344e-06
3.35339e-06
3.17972e-06
2.95565e-06
2.74016e-06
2.58706e-06
2.47284e-06
2.35707e-06
2.20846e-06
2.02476e-06
1.81073e-06
1.55896e-06
1.3418e-06
1.18563e-06
1.16809e-06
1.37193e-06
1.74283e-06
3.19323e-06
3.34052e-06
3.17439e-06
3.05026e-06
3.14845e-06
3.36773e-06
3.70881e-06
3.95379e-06
3.82523e-06
3.53955e-06
3.30857e-06
3.12672e-06
2.958e-06
2.76453e-06
2.5115e-06
2.19754e-06
1.87801e-06
1.70979e-06
1.88174e-06
2.23085e-06
3.29896e-06
2.89763e-06
3.21847e-06
3.84151e-06
4.37116e-06
4.6603e-06
4.63194e-06
4.47182e-06
4.34786e-06
4.15451e-06
3.92814e-06
3.73873e-06
3.57613e-06
3.40513e-06
3.19911e-06
2.93543e-06
2.62156e-06
2.35727e-06
2.33554e-06
2.53544e-06
3.28617e-06
2.98633e-06
3.23555e-06
3.68195e-06
4.16345e-06
4.64025e-06
5.15778e-06
5.49614e-06
5.57278e-06
5.49362e-06
5.27486e-06
4.96289e-06
4.66148e-06
4.39833e-06
4.14991e-06
3.87865e-06
3.56183e-06
3.24485e-06
3.06955e-06
3.10731e-06
3.16597e-06
2.9785e-06
3.25394e-06
3.88895e-06
4.33936e-06
4.95422e-06
5.32291e-06
5.77775e-06
6.21007e-06
6.44979e-06
6.49392e-06
6.31512e-06
6.00408e-06
5.67351e-06
5.35284e-06
5.02786e-06
4.68003e-06
4.321e-06
4.02955e-06
3.9244e-06
2.93114e-06
3.01473e-06
3.2122e-06
3.8931e-06
4.55211e-06
5.12093e-06
5.71413e-06
6.26493e-06
6.68459e-06
7.00932e-06
7.12867e-06
7.08056e-06
6.90023e-06
6.65e-06
6.36059e-06
6.04089e-06
5.69576e-06
5.33976e-06
5.01168e-06
4.83251e-06
2.64084e-06
2.8399e-06
3.3244e-06
3.75723e-06
4.80586e-06
5.31223e-06
6.22587e-06
6.97565e-06
7.84569e-06
8.45911e-06
8.97939e-06
9.2212e-06
9.22725e-06
9.01876e-06
8.65623e-06
8.23601e-06
7.77768e-06
7.27689e-06
6.76644e-06
6.41387e-06
2.29144e-06
2.35528e-06
3.1946e-06
3.82396e-06
4.69541e-06
5.68653e-06
6.5028e-06
7.56059e-06
8.36123e-06
9.07095e-06
9.67855e-06
1.01974e-05
1.05567e-05
1.07537e-05
1.08173e-05
1.06378e-05
1.02482e-05
9.75377e-06
9.18313e-06
8.70665e-06
2.19118e-06
2.27346e-06
2.86039e-06
3.87143e-06
4.76705e-06
5.87285e-06
6.95604e-06
7.94847e-06
8.96029e-06
9.90554e-06
1.0765e-05
1.14769e-05
1.20208e-05
1.23851e-05
1.25316e-05
1.25137e-05
1.23509e-05
1.20324e-05
1.15586e-05
1.11685e-05
1.87819e-06
2.45243e-06
2.96454e-06
3.6301e-06
4.78113e-06
5.84644e-06
7.1914e-06
8.39179e-06
9.57035e-06
1.06295e-05
1.18118e-05
1.29064e-05
1.39009e-05
1.46893e-05
1.52006e-05
1.53876e-05
1.52655e-05
1.48716e-05
1.42841e-05
1.38275e-05
1.5006e-06
1.7838e-06
2.51151e-06
3.33139e-06
4.34875e-06
5.44826e-06
6.64911e-06
8.14931e-06
9.86259e-06
1.13468e-05
1.26752e-05
1.4141e-05
1.54921e-05
1.67031e-05
1.76394e-05
1.81969e-05
1.83641e-05
1.81707e-05
1.76878e-05
1.72683e-05
1.1757e-06
1.86662e-06
2.45592e-06
3.07667e-06
3.95633e-06
5.00099e-06
6.02623e-06
7.07898e-06
8.65319e-06
1.07712e-05
1.29188e-05
1.50002e-05
1.69053e-05
1.86371e-05
2.01137e-05
2.13186e-05
2.20987e-05
2.2374e-05
2.21716e-05
2.18831e-05
1.18372e-06
1.78245e-06
2.5131e-06
3.37141e-06
4.23246e-06
5.27382e-06
6.50988e-06
7.91515e-06
9.25419e-06
1.04711e-05
1.22291e-05
1.43461e-05
1.69145e-05
1.97368e-05
2.24759e-05
2.47413e-05
2.64457e-05
2.76149e-05
2.81409e-05
2.81956e-05
9.60107e-07
1.52576e-06
2.21714e-06
2.9791e-06
3.74191e-06
4.76539e-06
6.01065e-06
7.46275e-06
9.29479e-06
1.13987e-05
1.34766e-05
1.55085e-05
1.76232e-05
1.9982e-05
2.29879e-05
2.6875e-05
3.10655e-05
3.45304e-05
3.66398e-05
3.79453e-05
8.5095e-07
1.41776e-06
2.06436e-06
2.72603e-06
3.54409e-06
4.51116e-06
5.58808e-06
6.86918e-06
8.33542e-06
1.00373e-05
1.20972e-05
1.46026e-05
1.75867e-05
2.10336e-05
2.4759e-05
2.87725e-05
3.38793e-05
4.09455e-05
4.87244e-05
5.72632e-05
7.0616e-07
1.25192e-06
1.81641e-06
2.42941e-06
3.21398e-06
4.11106e-06
5.19802e-06
6.46345e-06
7.96304e-06
9.69761e-06
1.17032e-05
1.39725e-05
1.65715e-05
1.97048e-05
2.38492e-05
2.95682e-05
3.71612e-05
4.74035e-05
6.33299e-05
7.27819e-05
6.04668e-07
1.15649e-06
1.68074e-06
2.27036e-06
3.00811e-06
3.86411e-06
4.86144e-06
6.04304e-06
7.41939e-06
9.01741e-06
1.08661e-05
1.30176e-05
1.5598e-05
1.88e-05
2.28436e-05
2.81321e-05
3.59266e-05
4.97743e-05
8.17177e-05
0.000146
0.0003816
0.000347658
0.000320073
0.000294754
0.000271466
0.000250011
0.000230228
0.00021198
0.0001951
0.000179413
0.000164869
0.000151221
0.000139016
0.0001277
0.000117439
0.000108082
9.94412e-05
9.14542e-05
8.41667e-05
7.94105e-05
1.34226e-06
2.60545e-06
2.90697e-06
2.84802e-06
2.68091e-06
2.47386e-06
2.27482e-06
2.07633e-06
1.86909e-06
1.73648e-06
1.64679e-06
1.56226e-06
1.42119e-06
1.25925e-06
1.34608e-06
1.3787e-06
1.16604e-06
1.05039e-06
1.23058e-06
1.55629e-06
1.58367e-06
2.30493e-06
2.65985e-06
2.77505e-06
2.72711e-06
2.60866e-06
2.454e-06
2.28771e-06
2.14723e-06
2.02216e-06
1.88637e-06
1.80421e-06
1.72617e-06
1.49014e-06
1.41548e-06
1.24407e-06
1.14838e-06
1.1758e-06
1.28021e-06
1.54643e-06
2.53558e-06
3.03846e-06
3.18077e-06
3.23414e-06
3.24284e-06
3.18288e-06
3.04193e-06
2.83441e-06
2.61903e-06
2.43891e-06
2.28455e-06
2.13784e-06
1.96862e-06
1.72556e-06
1.44523e-06
1.22995e-06
1.16868e-06
1.25769e-06
1.41345e-06
1.61846e-06
3.20916e-06
3.4241e-06
3.29306e-06
3.12837e-06
3.04019e-06
3.17512e-06
3.51143e-06
3.88383e-06
3.97894e-06
3.72219e-06
3.40326e-06
3.15474e-06
2.95757e-06
2.76273e-06
2.51856e-06
2.20729e-06
1.881e-06
1.70056e-06
1.87231e-06
2.23149e-06
3.35976e-06
2.99388e-06
3.16555e-06
3.67034e-06
4.26814e-06
4.60731e-06
4.58238e-06
4.43509e-06
4.28682e-06
4.13977e-06
3.98302e-06
3.82029e-06
3.64755e-06
3.4547e-06
3.23251e-06
2.96133e-06
2.64172e-06
2.37145e-06
2.34469e-06
2.54172e-06
3.27855e-06
2.92807e-06
3.22025e-06
3.78086e-06
4.42414e-06
5.00504e-06
5.38364e-06
5.44439e-06
5.28543e-06
5.07958e-06
4.89789e-06
4.72625e-06
4.54723e-06
4.34819e-06
4.11832e-06
3.8454e-06
3.52708e-06
3.21571e-06
3.04874e-06
3.09172e-06
3.15637e-06
2.98019e-06
3.28866e-06
3.94168e-06
4.46014e-06
5.10428e-06
5.55194e-06
6.01585e-06
6.30773e-06
6.35348e-06
6.21486e-06
5.96416e-06
5.7013e-06
5.45334e-06
5.20137e-06
4.91711e-06
4.59051e-06
4.24968e-06
3.97481e-06
3.88034e-06
2.93482e-06
3.01444e-06
3.21925e-06
3.90537e-06
4.54482e-06
5.15889e-06
5.72165e-06
6.30665e-06
6.85714e-06
7.28972e-06
7.47236e-06
7.50768e-06
7.29334e-06
6.95423e-06
6.59977e-06
6.24296e-06
5.87319e-06
5.49433e-06
5.14129e-06
4.9442e-06
2.65296e-06
2.83637e-06
3.29715e-06
3.77634e-06
4.77884e-06
5.32538e-06
6.23155e-06
7.02141e-06
7.90269e-06
8.5736e-06
9.09534e-06
9.28425e-06
9.28321e-06
9.09518e-06
8.72497e-06
8.27956e-06
7.80531e-06
7.30151e-06
6.79288e-06
6.44226e-06
2.31178e-06
2.35415e-06
3.17068e-06
3.81725e-06
4.71426e-06
5.68382e-06
6.5326e-06
7.59393e-06
8.40525e-06
9.13869e-06
9.77626e-06
1.03918e-05
1.07863e-05
1.09318e-05
1.09103e-05
1.0671e-05
1.02471e-05
9.73671e-06
9.16701e-06
8.69791e-06
2.17081e-06
2.31269e-06
2.87722e-06
3.83025e-06
4.73284e-06
5.88218e-06
6.93639e-06
7.97138e-06
8.96259e-06
9.91789e-06
1.08015e-05
1.14654e-05
1.19627e-05
1.23063e-05
1.24553e-05
1.24362e-05
1.2249e-05
1.18838e-05
1.13684e-05
1.09664e-05
1.87566e-06
2.431e-06
2.95001e-06
3.66377e-06
4.73699e-06
5.78621e-06
7.19635e-06
8.38952e-06
9.61169e-06
1.06093e-05
1.18074e-05
1.28844e-05
1.38792e-05
1.46675e-05
1.51831e-05
1.53677e-05
1.5249e-05
1.48755e-05
1.43082e-05
1.38549e-05
1.49482e-06
1.78193e-06
2.47084e-06
3.33079e-06
4.35702e-06
5.44023e-06
6.66407e-06
8.1511e-06
9.85363e-06
1.1409e-05
1.26495e-05
1.41383e-05
1.54701e-05
1.67014e-05
1.76288e-05
1.81944e-05
1.83752e-05
1.81953e-05
1.77199e-05
1.72968e-05
1.18727e-06
1.88387e-06
2.47958e-06
3.07429e-06
3.92666e-06
4.96348e-06
6.01386e-06
7.09457e-06
8.66068e-06
1.07328e-05
1.29677e-05
1.49614e-05
1.68765e-05
1.85579e-05
2.00608e-05
2.129e-05
2.20811e-05
2.23713e-05
2.21766e-05
2.18934e-05
1.17395e-06
1.78822e-06
2.52872e-06
3.37158e-06
4.26411e-06
5.27514e-06
6.51101e-06
7.91042e-06
9.27633e-06
1.05168e-05
1.22146e-05
1.44229e-05
1.69576e-05
1.97685e-05
2.24495e-05
2.46855e-05
2.64217e-05
2.76232e-05
2.81701e-05
2.82433e-05
9.73311e-07
1.53657e-06
2.20536e-06
2.97255e-06
3.75638e-06
4.77495e-06
6.01953e-06
7.46891e-06
9.28709e-06
1.13797e-05
1.34782e-05
1.54763e-05
1.76218e-05
2.00061e-05
2.3053e-05
2.69412e-05
3.10908e-05
3.45435e-05
3.66951e-05
3.80855e-05
8.4565e-07
1.41023e-06
2.0622e-06
2.7327e-06
3.54052e-06
4.50918e-06
5.60169e-06
6.86909e-06
8.34063e-06
1.00411e-05
1.20885e-05
1.45993e-05
1.75675e-05
2.10023e-05
2.4727e-05
2.8788e-05
3.39638e-05
4.1066e-05
4.88649e-05
5.76592e-05
7.12197e-07
1.25122e-06
1.81677e-06
2.43616e-06
3.21744e-06
4.11856e-06
5.20082e-06
6.46162e-06
7.95752e-06
9.69296e-06
1.16971e-05
1.39607e-05
1.6565e-05
1.9706e-05
2.38565e-05
2.95654e-05
3.71695e-05
4.75167e-05
6.36248e-05
7.3404e-05
6.02137e-07
1.15919e-06
1.67988e-06
2.27313e-06
3.01058e-06
3.86812e-06
4.86741e-06
6.04315e-06
7.42074e-06
9.01877e-06
1.0864e-05
1.30151e-05
1.5594e-05
1.87949e-05
2.28352e-05
2.81371e-05
3.59846e-05
4.99003e-05
8.20006e-05
0.00014672
0.000381589
0.000347658
0.000320071
0.000294752
0.000271442
0.000249935
0.000230067
0.000211711
0.000194714
0.000179
0.000164522
0.000151283
0.000139151
0.000127972
0.000117751
0.000108407
9.96983e-05
9.15565e-05
8.40792e-05
7.93678e-05
1.33741e-06
2.61477e-06
2.90089e-06
2.90988e-06
2.70464e-06
2.45328e-06
2.23291e-06
2.05388e-06
1.90688e-06
1.79485e-06
1.6628e-06
1.4603e-06
1.27255e-06
1.12712e-06
1.03794e-06
1.0025e-06
1.02386e-06
9.95343e-07
1.06343e-06
1.18882e-06
1.58642e-06
2.37723e-06
2.81633e-06
2.99879e-06
2.91011e-06
2.70229e-06
2.50297e-06
2.35554e-06
2.25309e-06
2.15463e-06
1.99524e-06
1.79105e-06
1.54396e-06
1.31417e-06
1.17817e-06
1.13256e-06
1.14845e-06
1.13584e-06
1.19651e-06
1.35236e-06
2.58657e-06
3.11191e-06
3.13379e-06
3.03531e-06
3.00184e-06
2.995e-06
2.9456e-06
2.83892e-06
2.70184e-06
2.56149e-06
2.41526e-06
2.26274e-06
2.07947e-06
1.82051e-06
1.51206e-06
1.2984e-06
1.11418e-06
1.11193e-06
1.34016e-06
1.69416e-06
3.08658e-06
3.05322e-06
3.29463e-06
3.67308e-06
3.74815e-06
3.57487e-06
3.448e-06
3.40599e-06
3.36802e-06
3.27814e-06
3.15215e-06
3.00799e-06
2.85292e-06
2.67127e-06
2.43458e-06
2.13317e-06
1.82111e-06
1.65831e-06
1.83865e-06
2.20026e-06
3.37737e-06
3.12074e-06
3.23523e-06
3.54916e-06
3.99317e-06
4.40143e-06
4.60077e-06
4.58131e-06
4.45255e-06
4.26829e-06
4.06941e-06
3.87531e-06
3.68282e-06
3.48007e-06
3.25456e-06
2.98207e-06
2.65729e-06
2.37975e-06
2.3485e-06
2.54359e-06
3.2785e-06
2.91519e-06
3.19405e-06
3.75043e-06
4.43382e-06
5.02682e-06
5.38154e-06
5.44135e-06
5.28383e-06
5.06238e-06
4.87158e-06
4.7011e-06
4.52771e-06
4.33332e-06
4.10306e-06
3.82597e-06
3.50592e-06
3.19816e-06
3.03601e-06
3.08183e-06
3.15883e-06
2.97546e-06
3.30941e-06
3.93053e-06
4.47133e-06
5.11241e-06
5.6e-06
6.06294e-06
6.30218e-06
6.30915e-06
6.13939e-06
5.88624e-06
5.64163e-06
5.415e-06
5.17633e-06
4.89566e-06
4.57077e-06
4.23169e-06
3.95928e-06
3.86714e-06
2.93737e-06
3.00057e-06
3.23031e-06
3.92252e-06
4.532e-06
5.19309e-06
5.728e-06
6.31917e-06
6.88995e-06
7.34504e-06
7.54887e-06
7.61032e-06
7.38923e-06
7.01071e-06
6.61991e-06
6.24677e-06
5.87223e-06
5.49048e-06
5.136e-06
4.93862e-06
2.64135e-06
2.82766e-06
3.27311e-06
3.84308e-06
4.74767e-06
5.33207e-06
6.23043e-06
7.01648e-06
7.90787e-06
8.60633e-06
9.13544e-06
9.32549e-06
9.31123e-06
9.09483e-06
8.71146e-06
8.26253e-06
7.78256e-06
7.27485e-06
6.76466e-06
6.4155e-06
2.33445e-06
2.33823e-06
3.13699e-06
3.83667e-06
4.74831e-06
5.64062e-06
6.56051e-06
7.57937e-06
8.43052e-06
9.16375e-06
9.78811e-06
1.03779e-05
1.07581e-05
1.09271e-05
1.09224e-05
1.06613e-05
1.02352e-05
9.73155e-06
9.15991e-06
8.68166e-06
2.18428e-06
2.31087e-06
2.85891e-06
3.788e-06
4.76969e-06
5.91745e-06
6.90173e-06
7.97858e-06
8.93533e-06
9.93358e-06
1.07855e-05
1.14611e-05
1.19393e-05
1.22776e-05
1.24254e-05
1.24428e-05
1.23122e-05
1.2014e-05
1.15531e-05
1.11651e-05
1.85352e-06
2.40011e-06
2.92979e-06
3.67466e-06
4.71416e-06
5.79763e-06
7.16034e-06
8.38395e-06
9.61696e-06
1.05796e-05
1.17907e-05
1.28582e-05
1.38472e-05
1.46422e-05
1.51689e-05
1.53635e-05
1.52326e-05
1.48261e-05
1.42311e-05
1.37722e-05
1.51034e-06
1.77353e-06
2.49857e-06
3.35795e-06
4.33476e-06
5.44266e-06
6.65652e-06
8.13338e-06
9.8672e-06
1.14335e-05
1.26422e-05
1.41169e-05
1.5464e-05
1.66821e-05
1.75982e-05
1.81351e-05
1.82911e-05
1.80976e-05
1.76209e-05
1.72079e-05
1.20225e-06
1.88634e-06
2.48316e-06
3.06699e-06
3.90988e-06
4.95095e-06
6.00775e-06
7.12201e-06
8.65289e-06
1.07257e-05
1.2969e-05
1.49549e-05
1.68449e-05
1.85107e-05
2.00105e-05
2.12442e-05
2.20295e-05
2.23145e-05
2.21195e-05
2.18366e-05
1.18531e-06
1.78576e-06
2.52514e-06
3.37107e-06
4.29453e-06
5.26953e-06
6.52096e-06
7.91723e-06
9.28817e-06
1.05385e-05
1.2217e-05
1.44583e-05
1.69806e-05
1.97685e-05
2.24097e-05
2.46203e-05
2.63622e-05
2.75721e-05
2.81236e-05
2.82058e-05
9.84623e-07
1.53246e-06
2.20025e-06
2.98527e-06
3.7646e-06
4.77364e-06
6.03595e-06
7.47917e-06
9.28657e-06
1.13751e-05
1.34739e-05
1.54555e-05
1.76094e-05
2.00049e-05
2.30642e-05
2.69337e-05
3.10461e-05
3.44841e-05
3.66497e-05
3.80629e-05
8.41727e-07
1.41944e-06
2.06621e-06
2.73294e-06
3.54288e-06
4.50081e-06
5.61088e-06
6.86601e-06
8.3447e-06
1.00422e-05
1.20805e-05
1.45901e-05
1.75457e-05
2.09648e-05
2.46817e-05
2.87572e-05
3.39536e-05
4.10468e-05
4.88307e-05
5.76324e-05
7.13782e-07
1.24984e-06
1.81869e-06
2.4385e-06
3.22419e-06
4.12598e-06
5.2092e-06
6.46707e-06
7.95854e-06
9.69309e-06
1.16928e-05
1.39494e-05
1.65506e-05
1.96864e-05
2.38295e-05
2.95235e-05
3.71141e-05
4.74812e-05
6.3641e-05
7.3447e-05
6.00993e-07
1.15814e-06
1.68057e-06
2.27512e-06
3.0148e-06
3.87046e-06
4.876e-06
6.04562e-06
7.42471e-06
9.0206e-06
1.08621e-05
1.30075e-05
1.55812e-05
1.8773e-05
2.28051e-05
2.81003e-05
3.59502e-05
4.98723e-05
8.19973e-05
0.000146779
0.000381594
0.000347653
0.00032007
0.000294768
0.000271479
0.000250013
0.000230217
0.000211967
0.00019514
0.000179535
0.000164998
0.000151433
0.000139276
0.000128023
0.000117501
0.000107962
9.92298e-05
9.11887e-05
8.38781e-05
7.9393e-05
1.34294e-06
2.62886e-06
2.88446e-06
2.86339e-06
2.67517e-06
2.4535e-06
2.24187e-06
2.05776e-06
1.90223e-06
1.79612e-06
1.68845e-06
1.50727e-06
1.22391e-06
1.0859e-06
1.07982e-06
1.13153e-06
1.13036e-06
1.14593e-06
1.27349e-06
1.49506e-06
1.56545e-06
2.31285e-06
2.64163e-06
2.73873e-06
2.71831e-06
2.61672e-06
2.47002e-06
2.31819e-06
2.19563e-06
2.11084e-06
2.1044e-06
2.03713e-06
1.69397e-06
1.50979e-06
1.38551e-06
1.37315e-06
1.39675e-06
1.33552e-06
1.3652e-06
1.67298e-06
2.58884e-06
3.13255e-06
3.20116e-06
3.12491e-06
3.04278e-06
2.97992e-06
2.90555e-06
2.8123e-06
2.69438e-06
2.55293e-06
2.39387e-06
2.2357e-06
2.06911e-06
1.83313e-06
1.53659e-06
1.30001e-06
1.16716e-06
1.20007e-06
1.46018e-06
1.79713e-06
3.05736e-06
2.87356e-06
3.14113e-06
3.64015e-06
3.96079e-06
3.88397e-06
3.62418e-06
3.36782e-06
3.1895e-06
3.09553e-06
3.02738e-06
2.93539e-06
2.80646e-06
2.63474e-06
2.40516e-06
2.11369e-06
1.81033e-06
1.65072e-06
1.8238e-06
2.17866e-06
3.36899e-06
3.13281e-06
3.26411e-06
3.56475e-06
3.914e-06
4.30993e-06
4.63139e-06
4.68435e-06
4.57097e-06
4.36447e-06
4.1186e-06
3.894e-06
3.69309e-06
3.49445e-06
3.27458e-06
3.00218e-06
2.6728e-06
2.39042e-06
2.35521e-06
2.54803e-06
3.2854e-06
2.92128e-06
3.16208e-06
3.63576e-06
4.19851e-06
4.68885e-06
5.14508e-06
5.47452e-06
5.58688e-06
5.49413e-06
5.22636e-06
4.91707e-06
4.63862e-06
4.38885e-06
4.1404e-06
3.86027e-06
3.5374e-06
3.22347e-06
3.05386e-06
3.09529e-06
3.1565e-06
2.9778e-06
3.31164e-06
3.85683e-06
4.36513e-06
4.97509e-06
5.49154e-06
6.02654e-06
6.35349e-06
6.48914e-06
6.37873e-06
6.1027e-06
5.78691e-06
5.49789e-06
5.21823e-06
4.91794e-06
4.58843e-06
4.24761e-06
3.97232e-06
3.8789e-06
2.93623e-06
2.9922e-06
3.22127e-06
3.91919e-06
4.51144e-06
5.19486e-06
5.77374e-06
6.3032e-06
6.79362e-06
7.20578e-06
7.45811e-06
7.59499e-06
7.50684e-06
7.20015e-06
6.8178e-06
6.41999e-06
6.01208e-06
5.60271e-06
5.22465e-06
5.01061e-06
2.6284e-06
2.81866e-06
3.22223e-06
3.88124e-06
4.75551e-06
5.30442e-06
6.22969e-06
6.86777e-06
7.71684e-06
8.37379e-06
8.91961e-06
9.21572e-06
9.2016e-06
8.95739e-06
8.59063e-06
8.17814e-06
7.72631e-06
7.23322e-06
6.73243e-06
6.392e-06
2.31347e-06
2.39847e-06
3.18459e-06
3.87102e-06
4.7937e-06
5.58222e-06
6.52945e-06
7.53711e-06
8.39301e-06
9.08212e-06
9.58261e-06
9.92448e-06
1.02195e-05
1.04502e-05
1.05371e-05
1.03774e-05
1.004e-05
9.6006e-06
9.07392e-06
8.62709e-06
2.20953e-06
2.30346e-06
2.89902e-06
3.86395e-06
4.80398e-06
5.91566e-06
6.85726e-06
7.95599e-06
8.92422e-06
9.92334e-06
1.07398e-05
1.14897e-05
1.20594e-05
1.24233e-05
1.25737e-05
1.25565e-05
1.23828e-05
1.20521e-05
1.15658e-05
1.11543e-05
1.8453e-06
2.34185e-06
2.87712e-06
3.68741e-06
4.79638e-06
5.84505e-06
7.16224e-06
8.28074e-06
9.45618e-06
1.056e-05
1.18131e-05
1.29003e-05
1.38948e-05
1.46764e-05
1.51732e-05
1.53487e-05
1.52126e-05
1.48027e-05
1.42028e-05
1.37373e-05
1.51251e-06
1.77222e-06
2.45495e-06
3.4195e-06
4.34823e-06
5.46125e-06
6.70264e-06
8.24357e-06
9.86547e-06
1.12495e-05
1.26568e-05
1.40803e-05
1.54668e-05
1.66632e-05
1.75764e-05
1.81083e-05
1.82493e-05
1.80455e-05
1.75614e-05
1.71433e-05
1.21069e-06
1.86487e-06
2.43792e-06
3.05004e-06
4.02134e-06
4.98837e-06
6.07367e-06
7.13119e-06
8.79057e-06
1.08687e-05
1.28971e-05
1.4977e-05
1.67928e-05
1.84802e-05
1.99834e-05
2.11863e-05
2.19601e-05
2.22281e-05
2.20202e-05
2.17327e-05
1.22169e-06
1.79459e-06
2.5248e-06
3.36734e-06
4.24756e-06
5.29001e-06
6.52173e-06
7.9375e-06
9.31004e-06
1.05465e-05
1.23643e-05
1.4455e-05
1.69957e-05
1.97314e-05
2.23321e-05
2.45445e-05
2.62595e-05
2.74462e-05
2.79849e-05
2.80637e-05
9.79511e-07
1.52164e-06
2.21263e-06
2.99103e-06
3.76791e-06
4.77707e-06
6.04591e-06
7.49081e-06
9.31583e-06
1.13979e-05
1.34151e-05
1.54825e-05
1.75972e-05
1.99914e-05
2.30183e-05
2.68293e-05
3.09109e-05
3.43345e-05
3.6486e-05
3.78858e-05
8.4597e-07
1.43007e-06
2.06762e-06
2.72936e-06
3.56176e-06
4.5119e-06
5.60761e-06
6.87392e-06
8.3405e-06
1.00507e-05
1.21096e-05
1.45752e-05
1.75236e-05
2.09183e-05
2.46213e-05
2.8669e-05
3.38109e-05
4.08231e-05
4.857e-05
5.73827e-05
7.10468e-07
1.24807e-06
1.82338e-06
2.441e-06
3.22536e-06
4.12235e-06
5.21039e-06
6.47615e-06
7.97369e-06
9.70578e-06
1.16836e-05
1.39352e-05
1.65272e-05
1.96536e-05
2.37667e-05
2.94227e-05
3.69569e-05
4.723e-05
6.32304e-05
7.28384e-05
6.02092e-07
1.15854e-06
1.68474e-06
2.27679e-06
3.01896e-06
3.8723e-06
4.87707e-06
6.05121e-06
7.42929e-06
9.0182e-06
1.08587e-05
1.30017e-05
1.55684e-05
1.87363e-05
2.27399e-05
2.80013e-05
3.57889e-05
4.96178e-05
8.15216e-05
0.000145724
0.000381591
0.000347663
0.00032007
0.000294757
0.000271462
0.000249973
0.000230112
0.000211768
0.000194818
0.000179144
0.000164684
0.000151322
0.000139009
0.000127735
0.000117484
0.000108167
9.95323e-05
9.16487e-05
8.41723e-05
7.94475e-05
1.34332e-06
2.60306e-06
2.82954e-06
2.7823e-06
2.6268e-06
2.42913e-06
2.2604e-06
2.14507e-06
2.03514e-06
1.8908e-06
1.71121e-06
1.52596e-06
1.36907e-06
1.30033e-06
1.25599e-06
1.22289e-06
1.14654e-06
1.16449e-06
1.34675e-06
1.37054e-06
1.56329e-06
2.27652e-06
2.57079e-06
2.64607e-06
2.64144e-06
2.60651e-06
2.5459e-06
2.47881e-06
2.41115e-06
2.29262e-06
2.04028e-06
1.78053e-06
1.61603e-06
1.52333e-06
1.44603e-06
1.3842e-06
1.43073e-06
1.45048e-06
1.63719e-06
1.67122e-06
2.58827e-06
3.16955e-06
3.22895e-06
3.15447e-06
3.07029e-06
2.97754e-06
2.86585e-06
2.75998e-06
2.65433e-06
2.54935e-06
2.43509e-06
2.29207e-06
2.08363e-06
1.8146e-06
1.53527e-06
1.31572e-06
1.16427e-06
1.15927e-06
1.41627e-06
1.78797e-06
3.07897e-06
2.89079e-06
3.05235e-06
3.38776e-06
3.67884e-06
3.84358e-06
3.82415e-06
3.61651e-06
3.40826e-06
3.26518e-06
3.14693e-06
3.01681e-06
2.86421e-06
2.67362e-06
2.42552e-06
2.12316e-06
1.81644e-06
1.65155e-06
1.81903e-06
2.17756e-06
3.36542e-06
3.13002e-06
3.25002e-06
3.60155e-06
4.04015e-06
4.40174e-06
4.56432e-06
4.54464e-06
4.40337e-06
4.20709e-06
4.01764e-06
3.84371e-06
3.66757e-06
3.47089e-06
3.24403e-06
2.9663e-06
2.6373e-06
2.35927e-06
2.32769e-06
2.52203e-06
3.28094e-06
2.9346e-06
3.20769e-06
3.72862e-06
4.41269e-06
5.00421e-06
5.4048e-06
5.54063e-06
5.39852e-06
5.1527e-06
4.90271e-06
4.69103e-06
4.50318e-06
4.30681e-06
4.08102e-06
3.80936e-06
3.49118e-06
3.1825e-06
3.01849e-06
3.06394e-06
3.16163e-06
2.97022e-06
3.36035e-06
3.88893e-06
4.46993e-06
5.05754e-06
5.49715e-06
5.89879e-06
6.24899e-06
6.37542e-06
6.30783e-06
6.12382e-06
5.86973e-06
5.59797e-06
5.31862e-06
5.01753e-06
4.67867e-06
4.32079e-06
4.02853e-06
3.92492e-06
2.92354e-06
2.9361e-06
3.22398e-06
3.95958e-06
4.47668e-06
5.15855e-06
5.67135e-06
6.19941e-06
6.66341e-06
7.10254e-06
7.30528e-06
7.23561e-06
7.02556e-06
6.76446e-06
6.47359e-06
6.15105e-06
5.79351e-06
5.41983e-06
5.07428e-06
4.88522e-06
2.63168e-06
2.81522e-06
3.10757e-06
3.9624e-06
4.75504e-06
5.24068e-06
6.23369e-06
6.87991e-06
7.81751e-06
8.37883e-06
8.87607e-06
9.18666e-06
9.23891e-06
9.09564e-06
8.78825e-06
8.38829e-06
7.93338e-06
7.43039e-06
6.90992e-06
6.54994e-06
2.34807e-06
2.51715e-06
3.20557e-06
3.82222e-06
4.90426e-06
5.4594e-06
6.61063e-06
7.54691e-06
8.39995e-06
9.02795e-06
9.58823e-06
9.99564e-06
1.03216e-05
1.04143e-05
1.0301e-05
1.00581e-05
9.72431e-06
9.31801e-06
8.83393e-06
8.42853e-06
2.1828e-06
2.3797e-06
3.0031e-06
3.8851e-06
4.82341e-06
5.87434e-06
6.7818e-06
8.00252e-06
8.93078e-06
9.89867e-06
1.07451e-05
1.14421e-05
1.19925e-05
1.23918e-05
1.26764e-05
1.27377e-05
1.25375e-05
1.21389e-05
1.15865e-05
1.1135e-05
1.85444e-06
2.26639e-06
2.88013e-06
3.7468e-06
4.85024e-06
5.95012e-06
7.10883e-06
8.09321e-06
9.40183e-06
1.05671e-05
1.1792e-05
1.29046e-05
1.39078e-05
1.46533e-05
1.50916e-05
1.52133e-05
1.50808e-05
1.4704e-05
1.41301e-05
1.3673e-05
1.50624e-06
1.76504e-06
2.44738e-06
3.47059e-06
4.38196e-06
5.47613e-06
6.81851e-06
8.32924e-06
9.63867e-06
1.11773e-05
1.25846e-05
1.40687e-05
1.54405e-05
1.66524e-05
1.75537e-05
1.8086e-05
1.82171e-05
1.7993e-05
1.74886e-05
1.70505e-05
1.22665e-06
1.8627e-06
2.39508e-06
3.0817e-06
4.13365e-06
5.00286e-06
6.10792e-06
7.32969e-06
9.05289e-06
1.08691e-05
1.29369e-05
1.49081e-05
1.67781e-05
1.8459e-05
1.99649e-05
2.1142e-05
2.18796e-05
2.21236e-05
2.18958e-05
2.15884e-05
1.2472e-06
1.82151e-06
2.53537e-06
3.35274e-06
4.22596e-06
5.33046e-06
6.57178e-06
7.94494e-06
9.32374e-06
1.07231e-05
1.24475e-05
1.45333e-05
1.69606e-05
1.96534e-05
2.22386e-05
2.44592e-05
2.61568e-05
2.72906e-05
2.77807e-05
2.78267e-05
9.86814e-07
1.51082e-06
2.23338e-06
2.97769e-06
3.76968e-06
4.78851e-06
6.0509e-06
7.53462e-06
9.35075e-06
1.13225e-05
1.33915e-05
1.54656e-05
1.76078e-05
1.99467e-05
2.29022e-05
2.66399e-05
3.06988e-05
3.41219e-05
3.62133e-05
3.74959e-05
8.52201e-07
1.44184e-06
2.05312e-06
2.73128e-06
3.56928e-06
4.51629e-06
5.60339e-06
6.8985e-06
8.35274e-06
1.00965e-05
1.21241e-05
1.45751e-05
1.74897e-05
2.08757e-05
2.45516e-05
2.85442e-05
3.35539e-05
4.04024e-05
4.806e-05
5.66005e-05
6.94967e-07
1.24722e-06
1.82266e-06
2.43792e-06
3.22386e-06
4.12468e-06
5.22466e-06
6.48773e-06
7.98703e-06
9.69072e-06
1.167e-05
1.392e-05
1.64984e-05
1.96027e-05
2.36823e-05
2.92815e-05
3.67292e-05
4.67833e-05
6.23471e-05
7.12991e-05
6.07404e-07
1.15986e-06
1.68808e-06
2.27571e-06
3.02053e-06
3.87249e-06
4.87239e-06
6.05219e-06
7.42123e-06
9.01653e-06
1.08625e-05
1.2999e-05
1.55506e-05
1.86907e-05
2.26548e-05
2.78529e-05
3.55154e-05
4.91303e-05
8.05495e-05
0.000143453
0.000381592
0.000347649
0.000320071
0.000294775
0.000271513
0.000250079
0.000230301
0.000212007
0.000194894
0.000179061
0.00016453
0.000151265
0.000139017
0.000127789
0.000117537
0.000108225
9.95675e-05
9.15467e-05
8.41215e-05
7.9415e-05
1.32811e-06
2.61931e-06
2.85205e-06
2.80164e-06
2.64846e-06
2.46418e-06
2.30796e-06
2.18064e-06
2.05681e-06
1.89601e-06
1.70144e-06
1.53728e-06
1.39865e-06
1.26052e-06
1.09616e-06
9.9612e-07
1.02854e-06
1.15872e-06
1.17874e-06
1.12514e-06
1.56353e-06
2.24451e-06
2.60681e-06
2.71806e-06
2.70772e-06
2.6595e-06
2.59923e-06
2.55591e-06
2.53701e-06
2.45219e-06
2.12623e-06