/*--------------------------------*- C++ -*----------------------------------*\
| =========                 |                                                 |
| \\      /  F ield         | OpenFOAM: The Open Source CFD Toolbox           |
|  \\    /   O peration     | Version:  4.x                                   |
|   \\  /    A nd           | Web:      www.OpenFOAM.org                      |
|    \\/     M anipulation  |                                                 |
\*---------------------------------------------------------------------------*/
FoamFile
{
    version     2.0;
    format      ascii;
    class       volScalarField;
    location    "250";
    object      p;
}
// * * * * * * * * * * * * * * * * * * * * * * * * * * * * * * * * * * * * * //

dimensions      [0 2 -2 0 0 0 0];

internalField   nonuniform List<scalar> 
112000
(
0.0676432
0.0643975
0.0623314
0.0604033
0.058659
0.0571153
0.0557702
0.054634
0.0537523
0.0531297
0.0525159
0.0518585
0.0511001
0.0502369
0.0497656
0.049384
0.0487176
0.0481015
0.0476926
0.047434
0.0674811
0.0662571
0.0646741
0.0626832
0.0605732
0.0586155
0.0569901
0.0557713
0.0548982
0.0542727
0.0537586
0.0531777
0.0524781
0.0515526
0.0504383
0.0492783
0.0481263
0.0470269
0.0458425
0.0443994
0.0719449
0.0704582
0.0684853
0.0659857
0.0632708
0.0605956
0.0581369
0.0560177
0.054335
0.0531476
0.0524304
0.0516764
0.0509028
0.0498406
0.0482728
0.0472664
0.0459635
0.044274
0.0423108
0.0402691
0.0788584
0.0768908
0.0742641
0.071001
0.0674278
0.0638072
0.0603769
0.057285
0.0545743
0.0522395
0.0502619
0.0486077
0.047238
0.046076
0.0449433
0.0437342
0.0424113
0.0407814
0.0383963
0.0346238
0.0882105
0.0853776
0.081668
0.0772891
0.0726456
0.0680563
0.0634848
0.05912
0.0550297
0.0512753
0.0479744
0.0451543
0.0427933
0.0408376
0.0391756
0.0376203
0.0359324
0.0337626
0.0305869
0.0258556
0.0985815
0.0952273
0.0907603
0.0854349
0.0796324
0.0736831
0.0679723
0.0623338
0.0567837
0.0514299
0.0463716
0.0417809
0.0377948
0.0344029
0.0314928
0.0288845
0.0262957
0.0233148
0.0193882
0.0139375
0.109046
0.105646
0.10105
0.0953974
0.0888886
0.081893
0.0747214
0.0674127
0.0601428
0.0528339
0.045599
0.038801
0.0326642
0.0272414
0.0224918
0.0182475
0.0142068
0.00993938
0.00488102
-0.00155784
0.118753
0.115891
0.111951
0.106956
0.100632
0.093009
0.08427
0.0749128
0.0654938
0.0559634
0.04645
0.0372271
0.0284752
0.0203609
0.0130102
0.00634534
0.000113839
-0.00606762
-0.0127519
-0.0205462
0.127457
0.125523
0.122708
0.119008
0.113688
0.106584
0.0972601
0.0863279
0.0743554
0.0620697
0.0496809
0.0375593
0.0259524
0.0147137
0.00400806
-0.00600636
-0.0153326
-0.024246
-0.0332817
-0.0430193
0.134933
0.134223
0.132793
0.13069
0.127125
0.121318
0.112891
0.10163
0.0882246
0.0733016
0.0576539
0.0419066
0.0261666
0.0107161
-0.00423291
-0.0184155
-0.031651
-0.0441086
-0.0562589
-0.0685701
0.141168
0.1417
0.141906
0.141563
0.140146
0.136397
0.12995
0.120105
0.106995
0.09074
0.0721103
0.0518599
0.0309047
0.00982529
-0.0105909
-0.0299685
-0.0484254
-0.065892
-0.0823313
-0.097916
0.146312
0.147936
0.149764
0.15138
0.152182
0.15113
0.147291
0.140053
0.12865
0.112834
0.0928845
0.0695869
0.0439034
0.0168924
-0.0103794
-0.0371325
-0.0628464
-0.087133
-0.109778
-0.130763
0.150523
0.153187
0.156292
0.15983
0.162988
0.164699
0.16412
0.160074
0.151716
0.138109
0.118887
0.0942307
0.0649685
0.0323806
-0.00216859
-0.0373026
-0.0718935
-0.105177
-0.136691
-0.16616
0.154012
0.157444
0.16174
0.166943
0.172335
0.176828
0.179554
0.179255
0.174788
0.164837
0.148495
0.124966
0.0943313
0.0575165
0.0160717
-0.0283047
-0.073888
-0.119184
-0.163114
-0.204745
0.156848
0.160851
0.166199
0.172885
0.180185
0.187346
0.193214
0.19676
0.196677
0.191382
0.179459
0.159594
0.130577
0.0921195
0.0451494
-0.00856781
-0.0668089
-0.127341
-0.18818
-0.247223
0.159101
0.163609
0.169804
0.177711
0.186709
0.196137
0.204983
0.212256
0.216535
0.2163
0.209863
0.195391
0.170899
0.134589
0.0853944
0.0237989
-0.0480641
-0.127263
-0.210825
-0.2955
0.160913
0.165847
0.17273
0.181637
0.192091
0.203477
0.214943
0.225556
0.233979
0.238772
0.238146
0.230064
0.212118
0.181552
0.13525
0.0703718
-0.0138099
-0.114925
-0.22992
-0.355113
0.162368
0.167648
0.175084
0.184809
0.196469
0.209504
0.223211
0.236751
0.248915
0.258355
0.263347
0.261868
0.251458
0.229031
0.190485
0.130133
0.0408208
-0.0822189
-0.239183
-0.433588
0.163541
0.169101
0.17698
0.187377
0.200019
0.214428
0.230026
0.246071
0.261503
0.275062
0.285174
0.289936
0.287043
0.273592
0.245595
0.196911
0.11687
-0.0133083
-0.220284
-0.520884
0.164492
0.17028
0.178516
0.189456
0.202903
0.218442
0.235612
0.253773
0.271986
0.289104
0.303699
0.314035
0.318052
0.313238
0.296276
0.262206
0.202366
0.0988549
-0.097606
-0.616297
0.0675815
0.0643216
0.062296
0.0603906
0.0586654
0.0571433
0.0558213
0.0546889
0.0537838
0.0530825
0.0524585
0.0517299
0.0509088
0.0502153
0.0497152
0.0491844
0.0486982
0.0483196
0.0479074
0.0475361
0.0675013
0.06625
0.0646574
0.0626542
0.0605281
0.0585481
0.0569194
0.0557265
0.0548697
0.0541959
0.0536481
0.0531501
0.0525916
0.0519008
0.0511312
0.0503391
0.0493706
0.0479644
0.0461617
0.0440589
0.0719828
0.0704136
0.0683898
0.0658833
0.0631858
0.0605028
0.058084
0.0561636
0.0547227
0.0535618
0.052569
0.0516721
0.0507585
0.0497667
0.0485477
0.047586
0.0464784
0.0451481
0.0434276
0.0409446
0.0789329
0.076933
0.0742585
0.0709425
0.0673836
0.0637918
0.0603819
0.0573112
0.0546428
0.0523722
0.0504497
0.0488
0.0473358
0.0460056
0.0447178
0.04341
0.042006
0.0403046
0.0380283
0.0346034
0.0881716
0.0854911
0.0819727
0.0775621
0.0726207
0.0676251
0.062885
0.0587818
0.0551299
0.0515631
0.0482153
0.0453016
0.0428818
0.040898
0.0392186
0.0376572
0.0359731
0.0338022
0.0306186
0.0258738
0.0987024
0.0952593
0.0907168
0.0853835
0.0796191
0.0737316
0.0679946
0.0622622
0.0566968
0.0514343
0.0464402
0.0418496
0.0378447
0.0344436
0.0315338
0.0289264
0.0263363
0.0233557
0.0194314
0.0139769
0.109107
0.105669
0.101106
0.0955339
0.0890956
0.0819444
0.0744691
0.0669988
0.0596513
0.0524926
0.045608
0.0390855
0.0330211
0.027541
0.0226985
0.0183887
0.0143292
0.010071
0.00502699
-0.00140029
0.118799
0.115914
0.112011
0.107066
0.100795
0.0931635
0.0843197
0.0747062
0.065026
0.0554318
0.046169
0.0373468
0.0288247
0.0207438
0.0133247
0.00659264
0.000337548
-0.00584203
-0.0125212
-0.0203151
0.127496
0.125541
0.122748
0.119066
0.113775
0.106671
0.0973283
0.0864388
0.0745786
0.0623014
0.0499478
0.0379062
0.0261368
0.0147566
0.00405127
-0.00586838
-0.0151158
-0.0240098
-0.0330568
-0.0428233
0.134961
0.134244
0.132833
0.130738
0.12717
0.121391
0.112942
0.101744
0.0884447
0.0736087
0.0579586
0.0421563
0.0263402
0.0108489
-0.004041
-0.0180976
-0.0312056
-0.0435748
-0.0556874
-0.0680022
0.141181
0.141718
0.141943
0.141631
0.140184
0.136479
0.130031
0.120237
0.107167
0.0909501
0.0723103
0.0520652
0.0310959
0.00995037
-0.0105473
-0.0298289
-0.0480771
-0.0653376
-0.0815971
-0.0970305
0.146306
0.147954
0.149784
0.151463
0.152245
0.151209
0.147414
0.14019
0.128829
0.113044
0.0931291
0.0698337
0.0441101
0.0170265
-0.0103217
-0.0371248
-0.0628875
-0.087151
-0.109548
-0.129998
0.150508
0.15322
0.1563
0.159898
0.163058
0.164793
0.164244
0.160237
0.151918
0.138349
0.119151
0.0944896
0.065216
0.0325668
-0.00203389
-0.0372
-0.0717917
-0.104997
-0.136351
-0.165611
0.153998
0.15748
0.161757
0.167007
0.172416
0.176927
0.17969
0.179423
0.175014
0.165109
0.14876
0.125236
0.0945774
0.0577117
0.0162169
-0.0282118
-0.073816
-0.119102
-0.163002
-0.204583
0.156837
0.160887
0.166239
0.172934
0.180296
0.187442
0.193367
0.196933
0.196894
0.191665
0.179738
0.159857
0.13079
0.0922594
0.045178
-0.0086465
-0.0669923
-0.127608
-0.188507
-0.247586
0.159085
0.163641
0.16985
0.177768
0.186803
0.196248
0.205121
0.212449
0.216762
0.216565
0.210142
0.195642
0.171086
0.134668
0.0853108
0.0235143
-0.0485697
-0.128
-0.211778
-0.296668
0.160896
0.165881
0.172779
0.1817
0.192184
0.203585
0.215091
0.225747
0.234206
0.239032
0.238419
0.23031
0.212288
0.181595
0.135091
0.0699322
-0.0146073
-0.11614
-0.231625
-0.35733
0.16235
0.167683
0.175135
0.184876
0.196559
0.209611
0.223361
0.236935
0.249141
0.25861
0.26361
0.262111
0.251626
0.22907
0.190313
0.129638
0.0398382
-0.0838606
-0.241843
-0.438148
0.163521
0.169137
0.177031
0.187444
0.200106
0.214538
0.230175
0.246253
0.261724
0.275313
0.285431
0.290177
0.287217
0.273648
0.245456
0.196464
0.115926
-0.0150672
-0.223519
-0.525962
0.164471
0.170316
0.178567
0.189524
0.202988
0.218552
0.235759
0.253952
0.272203
0.289349
0.303951
0.314273
0.318234
0.313318
0.29619
0.261866
0.201627
0.0974829
-0.100086
-0.624059
0.0675841
0.0643287
0.062306
0.0604015
0.0586624
0.0570922
0.0556943
0.0545249
0.0536814
0.0530629
0.0525681
0.0520649
0.0514016
0.0508088
0.050111
0.0493505
0.0486672
0.048147
0.0478153
0.0475225
0.0675142
0.066263
0.0646696
0.0627002
0.0606168
0.0586392
0.0569627
0.0556385
0.0546049
0.0537854
0.0531319
0.0526118
0.0522114
0.0518028
0.0512605
0.0507131
0.0499937
0.0490198
0.0473884
0.0448
0.0719677
0.0704515
0.0684873
0.0660117
0.0633264
0.0606796
0.0582522
0.0561473
0.0543817
0.052929
0.0517286
0.0507947
0.0501917
0.0496065
0.0486174
0.0475485
0.0463754
0.0453774
0.0438248
0.0413694
0.078856
0.0769645
0.0744021
0.0710796
0.0674001
0.0637329
0.0603182
0.0572657
0.0545919
0.0522856
0.0503347
0.0487154
0.0473889
0.0462177
0.0449907
0.0436071
0.0419501
0.0398044
0.0371802
0.0339514
0.0881039
0.0854786
0.0820234
0.0777094
0.0728037
0.0677051
0.0628181
0.0585157
0.0549087
0.0515697
0.0483472
0.0454419
0.0429835
0.0409555
0.0392453
0.0376712
0.0359938
0.0338498
0.0306938
0.0259547
0.0986353
0.0952601
0.0908106
0.0854577
0.0796317
0.0737909
0.0680385
0.0623187
0.0567665
0.0514505
0.0464357
0.0418774
0.0379116
0.0345328
0.0316317
0.0290318
0.0264519
0.0234779
0.0195564
0.014104
0.109106
0.105658
0.101071
0.095442
0.0889657
0.081981
0.0747852
0.0674851
0.0601848
0.0528587
0.045687
0.0389642
0.0328838
0.027503
0.0227744
0.0185389
0.0145093
0.0102535
0.00520107
-0.00123668
0.118804
0.115906
0.111989
0.107004
0.100713
0.0930779
0.0843508
0.0750083
0.0656236
0.056165
0.0467586
0.0376164
0.0289157
0.0208425
0.0135271
0.00690285
0.000699963
-0.00547583
-0.0121622
-0.0199603
0.127501
0.125543
0.122755
0.119059
0.113779
0.106678
0.097373
0.086498
0.0746452
0.0624867
0.0501652
0.0381617
0.0266435
0.0154407
0.00479048
-0.00513107
-0.0143841
-0.0232685
-0.0322949
-0.0420334
0.134967
0.134253
0.132851
0.130768
0.127206
0.121476
0.113035
0.101868
0.0885657
0.07378
0.058282
0.0425846
0.0269334
0.0116804
-0.0029996
-0.0169629
-0.0300721
-0.0424589
-0.0545714
-0.0668737
0.141188
0.141725
0.141966
0.141674
0.140239
0.13659
0.130176
0.120444
0.107395
0.0912318
0.0726179
0.0524848
0.0317571
0.010986
-0.00924393
-0.0284049
-0.0465884
-0.0638088
-0.0800704
-0.0955554
0.146304
0.147969
0.149807
0.151508
0.152306
0.151339
0.147582
0.14045
0.129144
0.113458
0.093626
0.0704912
0.0449715
0.0181395
-0.00895854
-0.035502
-0.060963
-0.0849854
-0.107381
-0.128148
0.150514
0.153229
0.15633
0.159954
0.163114
0.164933
0.164417
0.160514
0.152282
0.138831
0.119749
0.0952146
0.0660966
0.0336511
-0.000715338
-0.0356435
-0.070019
-0.103064
-0.134332
-0.163562
0.154003
0.157487
0.161777
0.167071
0.172483
0.177059
0.179866
0.179699
0.175399
0.165626
0.149374
0.125989
0.0954554
0.0587501
0.0174232
-0.0268319
-0.072267
-0.117396
-0.161128
-0.202527
0.156842
0.160896
0.166259
0.172981
0.180376
0.187572
0.193557
0.197206
0.197266
0.192178
0.180358
0.160589
0.131644
0.0932347
0.0462677
-0.00742831
-0.065661
-0.126159
-0.186918
-0.245843
0.15909
0.16365
0.169879
0.17781
0.186879
0.19638
0.205306
0.212717
0.217128
0.217041
0.210743
0.196344
0.171899
0.135563
0.0862789
0.024534
-0.0475129
-0.126917
-0.210676
-0.29554
0.160902
0.16589
0.172806
0.181743
0.192259
0.203712
0.215268
0.226004
0.234556
0.239483
0.238978
0.230967
0.213033
0.182411
0.135937
0.0707658
-0.0138308
-0.115467
-0.231135
-0.357098
0.162355
0.167694
0.175162
0.184921
0.196631
0.209733
0.223533
0.237185
0.249472
0.259035
0.264134
0.262721
0.252311
0.229806
0.191058
0.130327
0.0403831
-0.0835625
-0.24182
-0.438226
0.163527
0.169149
0.177057
0.187488
0.200177
0.214655
0.230342
0.246493
0.262037
0.275714
0.285919
0.290742
0.287846
0.274317
0.246125
0.197063
0.116332
-0.0150639
-0.224295
-0.528336
0.164477
0.170328
0.178592
0.189566
0.203057
0.218665
0.235921
0.254181
0.272501
0.289728
0.304407
0.314798
0.318813
0.31393
0.2968
0.262415
0.202004
0.0974661
-0.101165
-0.628957
0.0675798
0.0643276
0.0623113
0.0604191
0.0587169
0.0572246
0.0559272
0.0548076
0.0538483
0.0529888
0.0521668
0.0513868
0.0506553
0.0499867
0.0494304
0.0490162
0.0487034
0.0483954
0.0480346
0.0476054
0.0675129
0.0662356
0.0646455
0.0626695
0.0606103
0.058646
0.0569657
0.0556567
0.0546843
0.0539859
0.0534902
0.0530651
0.0525813
0.0520187
0.051286
0.0503261
0.0491205
0.0477587
0.0462845
0.0444255
0.0719668
0.0704163
0.0684012
0.0659169
0.0632818
0.0606681
0.0582309
0.0561518
0.0545206
0.0533083
0.0523708
0.0515753
0.0507911
0.0498902
0.0488098
0.0475306
0.0460312
0.0445822
0.0428775
0.0407987
0.0788499
0.0769818
0.0744337
0.0710958
0.0673875
0.063713
0.0603018
0.0572589
0.0546105
0.0523443
0.050434
0.048845
0.0475192
0.0463262
0.0450032
0.0434327
0.0417469
0.0400138
0.0377672
0.0344762
0.0882206
0.0854539
0.0817715
0.0774327
0.0728356
0.0680643
0.0633544
0.0589636
0.0549862
0.0513716
0.0481326
0.0453199
0.0429428
0.040956
0.0392553
0.0376789
0.0359954
0.0338504
0.030709
0.0259919
0.0986457
0.0952721
0.0908252
0.0854992
0.0796681
0.0737602
0.0680341
0.0623814
0.0568511
0.051536
0.0465367
0.0419955
0.0380305
0.0346464
0.0317472
0.0291591
0.026597
0.023638
0.0197245
0.0142753
0.109113
0.10568
0.101102
0.0954797
0.0890012
0.0820253
0.0748522
0.0675769
0.0603204
0.0530331
0.0458797
0.0391559
0.0330764
0.0277142
0.0230163
0.0188065
0.0147844
0.0105239
0.00546504
-0.000980093
0.118809
0.115919
0.112024
0.107047
0.10079
0.0931599
0.0844628
0.0751917
0.0658565
0.0564451
0.047064
0.0379208
0.0292372
0.0212122
0.0139561
0.007373
0.00118539
-0.00498362
-0.011669
-0.0194696
0.127511
0.125547
0.122797
0.119099
0.113867
0.106805
0.0975549
0.0867271
0.0749133
0.062819
0.0505671
0.0386411
0.0272532
0.0161649
0.00556205
-0.00434817
-0.0135706
-0.0224179
-0.0314149
-0.0411346
0.134982
0.13426
0.132885
0.13083
0.127288
0.12164
0.11326
0.102174
0.0889363
0.0742456
0.0588663
0.04329
0.0277892
0.0126489
-0.00195607
-0.0158477
-0.0288937
-0.041232
-0.0533014
-0.065574
0.141196
0.141741
0.141999
0.141748
0.140331
0.136757
0.130432
0.120799
0.107864
0.0918355
0.0733845
0.0534266
0.0328446
0.0121761
-0.00784274
-0.0269009
-0.0450892
-0.0622556
-0.0783776
-0.093669
0.146304
0.147986
0.149837
0.151577
0.152417
0.151501
0.147851
0.140829
0.129675
0.114164
0.0945224
0.0716048
0.0462912
0.0196374
-0.00731855
-0.0338281
-0.0593288
-0.0833225
-0.105446
-0.12562
0.150524
0.153236
0.156367
0.160014
0.16322
0.165122
0.164668
0.160915
0.152823
0.139589
0.12072
0.0964468
0.067579
0.0353814
0.00123496
-0.0334761
-0.0676417
-0.100457
-0.131441
-0.160338
0.154011
0.157497
0.161815
0.167138
0.172583
0.177234
0.180126
0.180092
0.175945
0.166393
0.150378
0.127262
0.0970366
0.0606522
0.0196547
-0.0242599
-0.0693662
-0.114185
-0.157625
-0.198724
0.156849
0.160908
0.166289
0.173045
0.180477
0.187732
0.193821
0.197584
0.197805
0.192928
0.18135
0.161861
0.133242
0.0951797
0.0485889
-0.00471152
-0.062548
-0.122658
-0.183028
-0.241535
0.159096
0.163661
0.169911
0.177866
0.186975
0.19654
0.20556
0.213082
0.217645
0.217755
0.211702
0.197574
0.173457
0.137465
0.0885667
0.0272363
-0.0443756
-0.123333
-0.206623
-0.290973
0.160907
0.165902
0.172839
0.181796
0.19235
0.203867
0.215508
0.226346
0.235053
0.240154
0.239884
0.232125
0.214498
0.184214
0.138114
0.0733508
-0.0108047
-0.111967
-0.227109
-0.352472
0.162361
0.167706
0.175193
0.18497
0.196718
0.209881
0.223757
0.237512
0.249939
0.259664
0.264979
0.263798
0.253668
0.231472
0.193071
0.132724
0.043195
-0.0802968
-0.238006
-0.433826
0.163533
0.169162
0.177086
0.187535
0.200262
0.214795
0.230553
0.246802
0.262474
0.276303
0.2867
0.291736
0.289086
0.275837
0.247953
0.199232
0.118869
-0.0121351
-0.220886
-0.524317
0.164483
0.170342
0.178619
0.189612
0.203139
0.218797
0.236121
0.254473
0.272911
0.290277
0.305129
0.315711
0.319943
0.315305
0.298441
0.264346
0.204246
0.100017
-0.0983333
-0.625969
0.0675882
0.0643326
0.062309
0.060399
0.0586512
0.0570743
0.0556768
0.0545028
0.0536233
0.0529787
0.0525109
0.0519146
0.0513069
0.0508463
0.0503719
0.0498649
0.0494007
0.0489325
0.0484021
0.0476771
0.067523
0.066268
0.0646887
0.0627053
0.0606069
0.0586297
0.056921
0.0555655
0.0545157
0.0537402
0.0532236
0.0528608
0.0524764
0.0519606
0.0513414
0.0506027
0.0497287
0.0486331
0.047116
0.044806
0.0719756
0.0704667
0.0685021
0.0660227
0.0633173
0.0606651
0.0582224
0.0560897
0.0543005
0.0528769
0.0518672
0.0511681
0.0505316
0.0497455
0.0489226
0.0477374
0.0464514
0.0454974
0.0439567
0.0414071
0.0788317
0.0769693
0.0744479
0.0711483
0.0674684
0.0637993
0.0603548
0.0572506
0.0545402
0.0522213
0.0502676
0.0486552
0.0473438
0.0462242
0.0450813
0.0438024
0.042394
0.0406334
0.0380974
0.0344444
0.0882515
0.0854512
0.0817315
0.0773384
0.0727872
0.0681935
0.0636207
0.0592089
0.0550717
0.0513188
0.0480483
0.0452788
0.042958
0.0410069
0.0393139
0.0377281
0.0360316
0.0338731
0.0307324
0.0260522
0.0986355
0.0952668
0.0908503
0.0855856
0.0797833
0.0737589
0.067934
0.0623278
0.0568248
0.0515965
0.0467037
0.042212
0.03824
0.0348334
0.0319226
0.0293366
0.0267783
0.0238227
0.0199124
0.0144666
0.109108
0.105695
0.101155
0.0956127
0.0891988
0.0820778
0.0746394
0.0672595
0.0600304
0.0530628
0.0462798
0.0397196
0.0336261
0.0281767
0.0233996
0.019149
0.0151177
0.0108639
0.00581814
-0.000613701
0.11881
0.115934
0.112068
0.107131
0.100944
0.0933035
0.0845107
0.0751958
0.0657741
0.0564412
0.0473324
0.0384203
0.0298329
0.0218108
0.0145325
0.00793359
0.00175156
-0.00439305
-0.0110518
-0.0188331
0.127517
0.125554
0.122841
0.119147
0.113976
0.106967
0.0978095
0.0870904
0.075286
0.0631647
0.0509279
0.0389432
0.0276128
0.0167312
0.00631344
-0.00346846
-0.0126234
-0.0214274
-0.0303757
-0.0400449
0.134998
0.134266
0.132918
0.130894
0.127394
0.121831
0.113629
0.10272
0.0896006
0.074964
0.0594991
0.0439
0.0285665
0.0135289
-0.00104475
-0.014867
-0.0277922
-0.0399886
-0.0519265
-0.0640994
0.14121
0.141759
0.142031
0.141814
0.140447
0.136951
0.130802
0.1213
0.108598
0.0928325
0.07476
0.0550285
0.0344107
0.0136746
-0.00634427
-0.0253309
-0.043349
-0.0603146
-0.0762515
-0.0913834
0.146312
0.148014
0.149866
0.151638
0.152546
0.151687
0.148196
0.141309
0.130405
0.115139
0.0957954
0.0731182
0.048038
0.0215988
-0.00510536
-0.0312988
-0.0564951
-0.0802008
-0.102052
-0.121988
0.150538
0.15325
0.156397
0.160069
0.163362
0.165322
0.165015
0.161385
0.15353
0.140562
0.121997
0.098069
0.0695947
0.0377902
0.00405902
-0.0302346
-0.0639915
-0.0964019
-0.126991
-0.155528
0.154025
0.157511
0.161855
0.167196
0.17271
0.177445
0.180477
0.180576
0.176625
0.16733
0.151701
0.128967
0.0992314
0.0633534
0.0228909
-0.0204404
-0.0649732
-0.109232
-0.152127
-0.192706
0.156859
0.160922
0.166327
0.173125
0.180594
0.187915
0.194126
0.198053
0.19848
0.193827
0.18266
0.1636
0.135512
0.098035
0.0521109
-0.000472886
-0.0575516
-0.1169
-0.176524
-0.234286
0.159105
0.163674
0.169942
0.177929
0.187091
0.196714
0.205851
0.213508
0.218288
0.218674
0.212958
0.199281
0.175687
0.14035
0.0921863
0.0317118
-0.0389585
-0.116924
-0.199186
-0.282462
0.160914
0.165914
0.172869
0.181853
0.192456
0.204033
0.215786
0.226753
0.235655
0.241017
0.24108
0.233737
0.216638
0.186992
0.141673
0.0778456
-0.00521291
-0.105132
-0.218842
-0.342634
0.162367
0.167719
0.175221
0.185021
0.196818
0.210039
0.224016
0.237891
0.250505
0.260471
0.266094
0.2653
0.255657
0.234066
0.196423
0.137034
0.0487151
-0.0732928
-0.229072
-0.422433
0.163539
0.169176
0.177112
0.187584
0.200354
0.214943
0.230793
0.247157
0.263003
0.277048
0.287732
0.293118
0.290909
0.278203
0.251006
0.203176
0.124018
-0.00531682
-0.21148
-0.510969
0.164488
0.170356
0.178643
0.189659
0.203225
0.218937
0.236344
0.254804
0.273401
0.290965
0.306076
0.316974
0.321596
0.317435
0.301166
0.267831
0.208751
0.105979
-0.0898134
-0.610601
0.0675829
0.0643339
0.06232
0.0604275
0.0587195
0.0572175
0.0559024
0.0547468
0.0537438
0.0528982
0.0522107
0.0516112
0.0510235
0.050393
0.0497031
0.0489625
0.0483013
0.0479064
0.0476345
0.0473314
0.0675319
0.0662731
0.0646849
0.0626963
0.0605841
0.058616
0.0569467
0.0556503
0.0546772
0.0540225
0.0534974
0.0529783
0.0524191
0.0517713
0.051104
0.0503321
0.0494917
0.0484249
0.046908
0.0447097
0.0719926
0.0704844
0.0684964
0.0659878
0.063255
0.0605832
0.0581412
0.0560873
0.0545122
0.0534698
0.052539
0.0514881
0.0504205
0.0494091
0.0483635
0.0473132
0.0463457
0.0455242
0.0440293
0.041499
0.0788509
0.0769798
0.0744347
0.0711138
0.0674377
0.0637983
0.0603876
0.0573038
0.0545962
0.0522798
0.0503584
0.048789
0.0474706
0.0462634
0.0450413
0.0437347
0.0423221
0.0406298
0.0382336
0.0346397
0.088282
0.0854892
0.0817743
0.0773386
0.0726187
0.06795
0.0635842
0.0593629
0.05525
0.0514608
0.048163
0.0453806
0.0430565
0.0411057
0.0394112
0.0378171
0.0361095
0.033947
0.030823
0.0261615
0.0986629
0.0952888
0.0908378
0.0855072
0.0796881
0.0738352
0.0681814
0.0625842
0.0570593
0.0517206
0.0467183
0.0421961
0.0382608
0.034907
0.0320326
0.0294639
0.02691
0.0239573
0.0200546
0.0146203
0.10912
0.105705
0.101143
0.0955472
0.0890943
0.0821453
0.0749851
0.0677641
0.0605838
0.0534227
0.046357
0.0396517
0.033587
0.0282494
0.0235722
0.0193805
0.0153795
0.0111442
0.00611352
-0.000305414
0.118814
0.115947
0.112085
0.107122
0.10096
0.0934213
0.0848344
0.0755745
0.0661676
0.0568601
0.0476028
0.0386247
0.030081
0.022129
0.0148913
0.0083308
0.00222443
-0.00384089
-0.0104465
-0.0181946
0.127522
0.125552
0.122887
0.119187
0.114072
0.10715
0.098091
0.0874647
0.0757975
0.0637749
0.051749
0.0399808
0.0284052
0.0172537
0.00680208
-0.00285955
-0.0118655
-0.0205566
-0.0294409
-0.039085
0.135014
0.134255
0.132951
0.130979
0.127496
0.12203
0.113904
0.103081
0.0901529
0.0757929
0.0604588
0.0450127
0.0296208
0.01459
0.000146556
-0.0135384
-0.0263629
-0.0384649
-0.0502938
-0.0623485
0.141233
0.14178
0.142037
0.141901
0.140568
0.137131
0.131137
0.121739
0.109279
0.0936987
0.0758072
0.0562815
0.0359996
0.015836
-0.00393253
-0.0229644
-0.0409731
-0.0578436
-0.073678
-0.088758
0.146339
0.14806
0.149882
0.151695
0.152696
0.151859
0.148559
0.14181
0.13114
0.116116
0.0970982
0.0747646
0.0500259
0.023905
-0.0025215
-0.0282411
-0.0528828
-0.0761448
-0.0977446
-0.117712
0.150568
0.153267
0.156433
0.160138
0.163506
0.165528
0.165366
0.161894
0.154298
0.141612
0.123442
0.0999264
0.0719761
0.0407232
0.00756878
-0.0261887
-0.0594581
-0.0913794
-0.121526
-0.149671
0.154047
0.157515
0.161906
0.167266
0.172842
0.177672
0.180847
0.181061
0.177351
0.168421
0.153196
0.130997
0.10186
0.0666736
0.0269301
-0.015637
-0.0593897
-0.102878
-0.14501
-0.184874
0.156872
0.160932
0.166364
0.173203
0.180711
0.188103
0.194443
0.198563
0.199159
0.19489
0.184169
0.165668
0.13826
0.101597
0.0565691
0.00499637
-0.0509891
-0.10921
-0.167677
-0.224321
0.159113
0.163681
0.169973
0.177989
0.187204
0.196895
0.206165
0.213962
0.218982
0.219706
0.214421
0.201307
0.178426
0.143964
0.0968591
0.0376176
-0.0316214
-0.107985
-0.188532
-0.270079
0.160921
0.165922
0.172898
0.181909
0.192557
0.204209
0.216076
0.227192
0.236309
0.241992
0.24247
0.23567
0.219275
0.190507
0.146306
0.0838874
0.00256212
-0.0952674
-0.206474
-0.327502
0.162372
0.167728
0.175247
0.185072
0.196912
0.210199
0.224281
0.238296
0.251122
0.261378
0.267391
0.267104
0.258114
0.23736
0.200812
0.142885
0.0565377
-0.0629076
-0.215452
-0.405028
0.163544
0.169185
0.177136
0.187632
0.200442
0.21509
0.231036
0.247533
0.263574
0.277887
0.28893
0.294774
0.293157
0.281208
0.255005
0.208537
0.13137
0.00500223
-0.196467
-0.488385
0.164493
0.170366
0.178663
0.189705
0.203306
0.21907
0.236569
0.255151
0.273927
0.291736
0.307172
0.318484
0.323629
0.320133
0.304722
0.272547
0.215141
0.114971
-0.0759294
-0.582777
0.0675894
0.0643348
0.0623079
0.060393
0.0586394
0.0570729
0.0557336
0.0547162
0.0539672
0.0531979
0.0525029
0.0518503
0.0512147
0.0506414
0.050016
0.0493257
0.0488323
0.0483318
0.0479428
0.047455
0.0675408
0.0662867
0.0646982
0.062703
0.0605816
0.0585872
0.05691
0.0556352
0.0547128
0.0540472
0.053511
0.0530238
0.0525463
0.0520915
0.0516022
0.050692
0.0494585
0.0477869
0.0458121
0.0438531
0.0720036
0.0704897
0.0685221
0.0660297
0.0632892
0.0605664
0.0580568
0.0559832
0.0544825
0.0534829
0.052616
0.0515832
0.0505291
0.0496918
0.0488287
0.0479018
0.0467378
0.0451931
0.0432524
0.0407521
0.0788519
0.0769596
0.0744158
0.0711343
0.0675094
0.0638859
0.0604559
0.0573447
0.0546143
0.0522735
0.0503149
0.0487051
0.0473738
0.046212
0.0450808
0.0438536
0.0425164
0.0408356
0.0383788
0.0346901
0.0882746
0.0854472
0.0817133
0.077356
0.0728245
0.0682379
0.0637054
0.0593052
0.0551595
0.0514172
0.0481697
0.045415
0.0431099
0.0411698
0.039463
0.0378454
0.0361323
0.0339921
0.0309029
0.0262596
0.0986588
0.0952636
0.0908264
0.0855738
0.0798052
0.0739138
0.0682343
0.0626248
0.0571094
0.0518007
0.0468212
0.0423123
0.038384
0.035035
0.0321664
0.0296014
0.0270484
0.0240978
0.0202016
0.0147802
0.109121
0.105712
0.101159
0.09558
0.0891354
0.0821982
0.0750773
0.0679034
0.060738
0.0535921
0.0465467
0.0398755
0.0338421
0.0285226
0.0238581
0.0196786
0.0156915
0.0114713
0.00645385
4.61651e-05
0.118817
0.11596
0.112107
0.107146
0.101028
0.0935057
0.0849968
0.0757842
0.0664139
0.0571547
0.0479341
0.0390071
0.0305038
0.0225861
0.0153732
0.00883757
0.00276606
-0.00326717
-0.00985261
-0.0175878
0.127524
0.125552
0.122938
0.119203
0.114176
0.107254
0.0983279
0.0877353
0.0762096
0.0642514
0.0523291
0.0406365
0.0291095
0.0179949
0.00756729
-0.00203663
-0.0109601
-0.0195871
-0.0284332
-0.0380443
0.135018
0.134237
0.133018
0.131011
0.127596
0.1222
0.114149
0.103453
0.0906751
0.0764469
0.061313
0.0459748
0.0307249
0.0158006
0.00146304
-0.0121027
-0.02484
-0.0368771
-0.0486288
-0.0605984
0.141238
0.141771
0.142074
0.141981
0.140619
0.137368
0.131379
0.122203
0.109836
0.0945318
0.0768616
0.0576149
0.0376152
0.0176888
-0.00184928
-0.0207108
-0.0385796
-0.0553267
-0.071044
-0.0859996
0.146359
0.148061
0.149905
0.151791
0.152765
0.152062
0.148867
0.142286
0.131792
0.11706
0.0983434
0.0764258
0.0520684
0.0263592
0.000310076
-0.0250414
-0.0493027
-0.0722558
-0.093618
-0.113391
0.150585
0.15326
0.156471
0.160224
0.163615
0.165722
0.165661
0.162402
0.155
0.142636
0.12487
0.101829
0.0744192
0.0437543
0.0111838
-0.0219719
-0.0546671
-0.0860574
-0.115717
-0.143435
0.15406
0.157506
0.161953
0.167325
0.172962
0.177879
0.18112
0.181541
0.178077
0.169502
0.154719
0.133088
0.10461
0.0701721
0.0312516
-0.0104618
-0.0533547
-0.0960047
-0.13734
-0.176461
0.156878
0.160932
0.166399
0.173263
0.180822
0.188257
0.194737
0.199017
0.199879
0.195955
0.185731
0.167818
0.141182
0.105414
0.0614159
0.0109853
-0.0438026
-0.100802
-0.158039
-0.213496
0.159116
0.163682
0.170001
0.178042
0.18731
0.197047
0.206439
0.21442
0.219664
0.220735
0.215943
0.203437
0.181358
0.147882
0.101987
0.0441565
-0.0234966
-0.0981336
-0.17687
-0.25657
0.160923
0.165926
0.172923
0.181956
0.192648
0.204354
0.216341
0.227606
0.236955
0.242974
0.243912
0.23771
0.222101
0.194339
0.15142
0.0906165
0.0112307
-0.0843305
-0.192852
-0.310936
0.162375
0.167733
0.175269
0.185117
0.196994
0.210333
0.224525
0.238676
0.251727
0.262289
0.268733
0.269006
0.26075
0.240955
0.205664
0.149413
0.0652849
-0.0513581
-0.200209
-0.384908
0.163546
0.169192
0.177154
0.187672
0.200516
0.215213
0.231258
0.247882
0.264131
0.278727
0.290162
0.296519
0.295568
0.284484
0.25942
0.21451
0.139581
0.0164746
-0.179881
-0.463796
0.164495
0.170373
0.178679
0.189742
0.203371
0.219184
0.236769
0.255471
0.274437
0.292505
0.308295
0.320069
0.325806
0.323068
0.30864
0.277783
0.22225
0.124948
-0.0607379
-0.55254
0.0675875
0.0643382
0.0623192
0.0604195
0.0587048
0.0571895
0.0558563
0.0546777
0.0536798
0.0529883
0.0524224
0.0517587
0.0510934
0.0504221
0.0494417
0.0485485
0.0482105
0.048026
0.0479615
0.0476794
0.0675501
0.0662951
0.0647005
0.0627028
0.060591
0.0586178
0.0570009
0.0558052
0.0549823
0.0544243
0.0538237
0.053182
0.0523436
0.0513272
0.0503963
0.0492792
0.0480127
0.0467167
0.0453755
0.0440044
0.0720426
0.0704837
0.0684691
0.0659809
0.0633063
0.0606453
0.0581832
0.0561209
0.0545768
0.0536359
0.0527145
0.0517571
0.0508928
0.0499502
0.048763
0.047467
0.0459567
0.044314
0.0425565
0.0403491
0.0789215
0.0769457
0.0743096
0.0710388
0.0675222
0.0639616
0.0605358
0.057412
0.0546687
0.052318
0.0503461
0.0487201
0.0473881
0.0462615
0.0452033
0.0440419
0.0426213
0.0407807
0.0382462
0.0346326
0.0882808
0.0854756
0.0817811
0.0773734
0.0726778
0.0680902
0.063698
0.0594322
0.0553271
0.0515427
0.0482417
0.045456
0.0431444
0.0412191
0.0395373
0.0379223
0.0361802
0.0340334
0.0309736
0.0263473
0.0987236
0.0952766
0.0907582
0.0855127
0.0798163
0.0739668
0.068267
0.0626235
0.0570998
0.05187
0.0469561
0.0424606
0.0385211
0.0351615
0.0322883
0.029717
0.0271568
0.0242019
0.0203014
0.014873
0.109127
0.105732
0.101211
0.0957005
0.0893184
0.0822414
0.0748687
0.0675935
0.0604351
0.0535397
0.046781
0.0402569
0.0342273
0.0288482
0.0241373
0.019941
0.0159588
0.0117563
0.00675937
0.00036697
0.118821
0.115983
0.11216
0.107239
0.101155
0.0935372
0.0848913
0.0756715
0.0663805
0.0572405
0.0482582
0.03947
0.0309768
0.0230595
0.015866
0.00934105
0.00326767
-0.0027732
-0.00936649
-0.0171087
0.127527
0.125565
0.122989
0.119229
0.114292
0.107281
0.098428
0.0877657
0.0762975
0.0643786
0.0524287
0.0407317
0.0295937
0.0189002
0.00862428
-0.00100609
-0.00996266
-0.0185914
-0.0274304
-0.0370163
0.135021
0.134231
0.133093
0.131007
0.127721
0.122318
0.114368
0.103708
0.0909428
0.0765861
0.0616744
0.0465363
0.0316293
0.0170044
0.0028154
-0.0106256
-0.02327
-0.0352721
-0.047013
-0.0589661
0.141238
0.141756
0.142157
0.142018
0.140686
0.137595
0.13158
0.12258
0.11022
0.0950633
0.0775864
0.0585438
0.0388747
0.0191894
-6.76582e-05
-0.0186435
-0.0362578
-0.0528077
-0.0683945
-0.0832526
0.146361
0.148044
0.14997
0.151879
0.152807
0.15226
0.149124