/*--------------------------------*- C++ -*----------------------------------*\
| =========                 |                                                 |
| \\      /  F ield         | OpenFOAM: The Open Source CFD Toolbox           |
|  \\    /   O peration     | Version:  4.x                                   |
|   \\  /    A nd           | Web:      www.OpenFOAM.org                      |
|    \\/     M anipulation  |                                                 |
\*---------------------------------------------------------------------------*/
FoamFile
{
    version     2.0;
    format      ascii;
    class       volScalarField;
    location    "250";
    object      pMean;
}
// * * * * * * * * * * * * * * * * * * * * * * * * * * * * * * * * * * * * * //

dimensions      [0 2 -2 0 0 0 0];

internalField   nonuniform List<scalar> 
112000
(
0.0880249
0.08425
0.0817462
0.0792909
0.0769715
0.0748478
0.072953
0.071292
0.069838
0.0685486
0.067381
0.0663048
0.0653062
0.0643874
0.063561
0.0628342
0.0622063
0.0616675
0.0611878
0.060679
0.0890696
0.0872365
0.0851389
0.0826197
0.0799806
0.0774296
0.0750678
0.0729634
0.0711635
0.0696826
0.0685092
0.0675992
0.0668775
0.0662627
0.0656865
0.0650844
0.0643641
0.0633771
0.0618961
0.0596548
0.0945546
0.0925191
0.0900519
0.0870836
0.0839288
0.0808105
0.0778711
0.0752095
0.072882
0.0709038
0.0692598
0.0678985
0.066759
0.0657894
0.064932
0.064104
0.0631777
0.0619516
0.0601315
0.0573945
0.10238
0.0999932
0.0970438
0.0934904
0.0896841
0.085835
0.082112
0.0786524
0.0755185
0.0727215
0.0702602
0.0681263
0.0662947
0.0647145
0.063306
0.061961
0.0605265
0.0587719
0.0563635
0.0529344
0.112178
0.109249
0.105562
0.101271
0.0966881
0.092046
0.0874818
0.0830854
0.0788783
0.0748877
0.0712096
0.0679286
0.0650685
0.0625978
0.0604355
0.0584484
0.0564513
0.0541851
0.0512859
0.047356
0.122544
0.119409
0.115431
0.110711
0.105513
0.100033
0.0945277
0.0890325
0.0835463
0.0781577
0.0729754
0.0681509
0.0638104
0.0599897
0.0566348
0.0536171
0.0507248
0.0476553
0.0440137
0.0393834
0.132611
0.129775
0.126166
0.121683
0.116277
0.110127
0.103566
0.0967721
0.0899039
0.0830132
0.0761298
0.0694366
0.0631719
0.0574861
0.0523958
0.0477987
0.0434927
0.0391703
0.0344219
0.0288181
0.141783
0.139691
0.137012
0.13348
0.12875
0.12264
0.115314
0.10711
0.0985033
0.0897725
0.0810164
0.0723406
0.0639219
0.0559583
0.0485761
0.041773
0.0354087
0.029224
0.0228441
0.0158511
0.149789
0.148718
0.147351
0.145308
0.141997
0.136877
0.129759
0.120863
0.110662
0.099753
0.0885744
0.0773782
0.0665025
0.0559895
0.0458269
0.0361622
0.0270614
0.0183638
0.00972462
0.000789298
0.156508
0.156604
0.156747
0.156508
0.15512
0.15181
0.146033
0.137615
0.126856
0.114329
0.100674
0.0865509
0.0723583
0.058282
0.0445118
0.0312761
0.0187275
0.00682238
-0.0047137
-0.0161405
0.161978
0.163268
0.164965
0.166654
0.167503
0.16659
0.163127
0.156577
0.146744
0.133848
0.118417
0.101139
0.082798
0.0640603
0.0456246
0.027904
0.0109095
-0.00528377
-0.0206215
-0.0351254
0.16634
0.168728
0.17191
0.175526
0.178731
0.180544
0.180011
0.176295
0.168722
0.156926
0.141105
0.121881
0.100084
0.0766801
0.0526504
0.0288194
0.00576219
-0.0161851
-0.0368156
-0.0560427
0.169797
0.173092
0.177601
0.183035
0.188554
0.193179
0.195871
0.195593
0.191342
0.182254
0.167815
0.148145
0.123976
0.0963882
0.0666506
0.0360174
0.00552603
-0.0240663
-0.0522622
-0.0787565
0.172538
0.176529
0.182179
0.189207
0.196856
0.204195
0.210159
0.21361
0.213354
0.208174
0.19698
0.179051
0.154381
0.12381
0.0886863
0.0505682
0.0110358
-0.0285166
-0.0670011
-0.103562
0.174673
0.179237
0.185823
0.194192
0.203698
0.213497
0.222568
0.229751
0.233782
0.23323
0.226607
0.212534
0.189973
0.158615
0.119264
0.0735975
0.0236743
-0.0283805
-0.0806208
-0.131311
0.176317
0.18136
0.188695
0.198179
0.209257
0.221192
0.23305
0.24374
0.252002
0.25633
0.25502
0.246265
0.228264
0.199392
0.158683
0.106637
0.0453304
-0.0223671
-0.093386
-0.164558
0.177586
0.18301
0.190939
0.201333
0.213712
0.227451
0.24173
0.255558
0.267736
0.27679
0.280968
0.278291
0.266548
0.243246
0.205639
0.15125
0.0794799
-0.00726551
-0.105215
-0.209454
0.178563
0.184293
0.19269
0.203812
0.21725
0.232485
0.248814
0.265356
0.281008
0.294379
0.303781
0.307248
0.302489
0.286734
0.256408
0.206628
0.131124
0.0251267
-0.110149
-0.2715
0.17932
0.18529
0.194055
0.205756
0.220048
0.236505
0.254537
0.273372
0.292012
0.309176
0.323289
0.332498
0.334631
0.32705
0.306268
0.26708
0.200623
0.0906267
-0.0866614
-0.336845
0.179907
0.186068
0.195121
0.207283
0.222261
0.239709
0.259138
0.279881
0.301043
0.321452
0.339658
0.353951
0.362359
0.362567
0.351649
0.325396
0.276679
0.190868
0.0264157
-0.404611
0.0879582
0.0841756
0.081721
0.0793017
0.0770071
0.0749034
0.0730169
0.0713404
0.0698502
0.0685196
0.0673237
0.0662352
0.065235
0.064318
0.0634923
0.0627653
0.0621372
0.0615935
0.0611059
0.0605951
0.0891156
0.087248
0.0851372
0.0825955
0.0799295
0.0773688
0.0750394
0.0730043
0.0712874
0.0698754
0.0687234
0.0677782
0.0669915
0.0663141
0.0656919
0.0650598
0.0643231
0.0633339
0.0618639
0.0596376
0.0946141
0.0925031
0.0900056
0.0870473
0.0839233
0.0808058
0.077844
0.075177
0.0728825
0.0709583
0.0693548
0.0680226
0.0669209
0.0659992
0.0651866
0.0643905
0.0634769
0.0622384
0.0603697
0.0575313
0.102451
0.100017
0.097048
0.093476
0.0896655
0.0858218
0.0821202
0.0786818
0.0755521
0.0727465
0.07027
0.0681187
0.0662734
0.0646843
0.0632715
0.0619255
0.0604922
0.0587399
0.0563327
0.0528976
0.112164
0.109305
0.105759
0.101467
0.0967288
0.0918994
0.0871772
0.0828043
0.0788277
0.0749935
0.0713157
0.067977
0.065068
0.0625717
0.0604001
0.0584094
0.056406
0.0541298
0.0512178
0.0472692
0.122629
0.119433
0.115441
0.11072
0.105527
0.10003
0.0944914
0.0889649
0.0834764
0.0781348
0.0729918
0.0681675
0.063808
0.0599685
0.0565965
0.0535578
0.0506407
0.0475461
0.0438796
0.0392203
0.132675
0.129787
0.126193
0.121747
0.116378
0.110168
0.103463
0.0965782
0.0896509
0.0828033
0.0760655
0.0694983
0.063271
0.0575577
0.0524183
0.0477766
0.0434382
0.0390899
0.0343145
0.0286783
0.141823
0.139714
0.137041
0.13353
0.128819
0.122698
0.115314
0.10701
0.098303
0.0895255
0.0808495
0.0723237
0.0639884
0.0560273
0.0486129
0.041775
0.0353815
0.0291689
0.0227581
0.0157308
0.149821
0.148735
0.147368
0.145336
0.142029
0.136899
0.12976
0.120861
0.110689
0.0997795
0.0886071
0.0774378
0.0664846
0.055931
0.0457957
0.0361606
0.0270605
0.0183413
0.00967278
0.00069865
0.156525
0.156622
0.156767
0.156531
0.155141
0.151822
0.146032
0.137609
0.12687
0.114351
0.100695
0.0865646
0.0723497
0.0582618
0.0445017
0.0312854
0.0187566
0.00686292
-0.00467764
-0.0161221
0.161985
0.163289
0.164992
0.16668
0.167526
0.166606
0.163136
0.156581
0.146746
0.133843
0.118401
0.101108
0.0827453
0.0639898
0.0455176
0.0277939
0.0108572
-0.00527728
-0.020571
-0.0350453
0.166335
0.168753
0.17194
0.175556
0.178759
0.180568
0.18003
0.176308
0.168729
0.156927
0.141098
0.121861
0.100044
0.0766161
0.0525599
0.028701
0.00561356
-0.0163411
-0.0369134
-0.0560288
0.169783
0.173118
0.177633
0.18307
0.188587
0.193209
0.195898
0.195615
0.191359
0.182267
0.167821
0.148141
0.12396
0.0963557
0.0665994
0.0359485
0.00544333
-0.0241499
-0.0523312
-0.0788016
0.172524
0.176556
0.182213
0.189243
0.196892
0.204229
0.210191
0.213639
0.21338
0.208195
0.196997
0.179061
0.15438
0.123798
0.0886632
0.0505343
0.0109915
-0.0285717
-0.0670668
-0.103633
0.174658
0.179264
0.185857
0.194228
0.203734
0.213533
0.222602
0.229784
0.233815
0.23326
0.226633
0.212555
0.189985
0.158616
0.119251
0.0735684
0.0236281
-0.0284447
-0.0807023
-0.131405
0.176298
0.181389
0.188731
0.198217
0.209295
0.221229
0.233087
0.243777
0.252039
0.256368
0.255055
0.246297
0.22829
0.199408
0.158682
0.106611
0.0452778
-0.0224489
-0.093496
-0.16469
0.177565
0.183039
0.190975
0.20137
0.213749
0.227488
0.241766
0.255595
0.267776
0.276831
0.28101
0.278334
0.266589
0.243282
0.205661
0.151243
0.0794305
-0.00736247
-0.105364
-0.209649
0.17854
0.184323
0.192726
0.20385
0.217287
0.232521
0.24885
0.265394
0.281048
0.294422
0.303828
0.307299
0.302542
0.286789
0.256459
0.206664
0.131114
0.0250244
-0.110341
-0.271798
0.179295
0.18532
0.194091
0.205793
0.220084
0.236539
0.254571
0.273408
0.292051
0.309219
0.323338
0.332554
0.334694
0.32712
0.306344
0.267157
0.200688
0.0906302
-0.0869018
-0.337223
0.179881
0.186097
0.195157
0.20732
0.222296
0.239742
0.25917
0.279915
0.301079
0.321493
0.339707
0.354008
0.362427
0.362647
0.351741
0.325503
0.276803
0.191013
0.0266301
-0.405899
0.0879607
0.0841747
0.0817074
0.0792729
0.0769523
0.0748198
0.0729326
0.0712857
0.0698357
0.0685491
0.067404
0.066382
0.0654634
0.064632
0.0638761
0.0631815
0.0625307
0.0618999
0.0612555
0.0605516
0.0891202
0.0872511
0.0851423
0.0826094
0.0799575
0.0774123
0.0750953
0.0730613
0.0713245
0.0698674
0.0686537
0.0676392
0.0667853
0.0660565
0.0654046
0.064766
0.0640526
0.063127
0.061768
0.0596995
0.0946243
0.0925292
0.0900384
0.087075
0.0839433
0.0808395
0.0779022
0.0752474
0.0729409
0.0709752
0.0692987
0.0678632
0.0666419
0.0656083
0.0647143
0.0638776
0.0629693
0.0617942
0.0600686
0.0574766
0.102416
0.100034
0.0971265
0.0935422
0.0896638
0.0857897
0.0820965
0.0786699
0.075541
0.0727306
0.0702523
0.0681039
0.0662626
0.0646732
0.0632517
0.0618891
0.0604357
0.0586653
0.0562477
0.0528132
0.112153
0.109301
0.105773
0.101492
0.0967512
0.0919
0.0871616
0.0827724
0.0787961
0.0749833
0.0713199
0.0679816
0.0650655
0.0625599
0.0603799
0.0583832
0.0563766
0.054098
0.0511829
0.0472289
0.122611
0.119431
0.115457
0.110729
0.105514
0.100037
0.0945098
0.0889866
0.083504
0.0781267
0.0729486
0.0681209
0.063774
0.0599459
0.0565808
0.0535478
0.0506378
0.04755
0.0438885
0.0392326
0.13267
0.129787
0.126178
0.121697
0.11629
0.110133
0.10356
0.0967642
0.0898801
0.0829578
0.0760635
0.0693836
0.0631379
0.0574633
0.0523733
0.0477681
0.0434487
0.0391112
0.0343484
0.0287289
0.14182
0.139712
0.137033
0.133496
0.128757
0.122631
0.115284
0.107075
0.0984756
0.0897551
0.0810078
0.0723448
0.0639432
0.0559955
0.048623
0.0418206
0.0354472
0.0292498
0.0228587
0.0158539
0.149812
0.148741
0.147369
0.145323
0.142004
0.136868
0.129726
0.120814
0.110623
0.0997333
0.0885626
0.0774022
0.0665549
0.0560677
0.0459315
0.0362821
0.0271824
0.0184777
0.00982837
0.000879227
0.156519
0.156631
0.156771
0.156525
0.155132
0.15181
0.146011
0.137572
0.126814
0.114288
0.100662
0.0865511
0.0723787
0.058356
0.0446443
0.0314401
0.0189009
0.00699579
-0.00454643
-0.0159833
0.161982
0.163292
0.164996
0.166679
0.167522
0.166601
0.163127
0.156565
0.146719
0.133805
0.118354
0.101076
0.0827749
0.0640966
0.0456778
0.0279804
0.0110224
-0.00514489
-0.0204708
-0.034973
0.166336
0.168752
0.171942
0.175557
0.178758
0.180567
0.180028
0.176304
0.168721
0.156915
0.141088
0.121868
0.100082
0.0766866
0.0526616
0.0288429
0.0058048
-0.016123
-0.0367349
-0.0559455
0.169783
0.173118
0.177634
0.18307
0.188587
0.193209
0.195898
0.195616
0.191359
0.182267
0.167822
0.148146
0.123972
0.0963833
0.0666475
0.0360177
0.00553129
-0.0240544
-0.0522423
-0.0787276
0.172523
0.176556
0.182213
0.189243
0.196893
0.20423
0.210192
0.213641
0.213382
0.208198
0.196998
0.17906
0.154381
0.123802
0.0886699
0.050544
0.0110042
-0.028555
-0.0670454
-0.10361
0.174657
0.179264
0.185857
0.194228
0.203735
0.213534
0.222603
0.229787
0.233816
0.233261
0.226633
0.212553
0.18998
0.158608
0.119238
0.0735516
0.0236072
-0.028469
-0.0807296
-0.131437
0.176298
0.181389
0.188731
0.198217
0.209295
0.22123
0.233088
0.243778
0.25204
0.256368
0.255053
0.246293
0.228282
0.199393
0.158659
0.106579
0.0452346
-0.0225037
-0.0935622
-0.164767
0.177564
0.183039
0.190976
0.201371
0.21375
0.227488
0.241767
0.255596
0.267776
0.27683
0.281008
0.278328
0.266578
0.243264
0.205632
0.151201
0.0793709
-0.00744327
-0.105468
-0.209778
0.17854
0.184323
0.192727
0.20385
0.217287
0.232521
0.24885
0.265394
0.281048
0.294421
0.303825
0.307292
0.30253
0.28677
0.25643
0.206619
0.131045
0.0249239
-0.110483
-0.271993
0.179295
0.18532
0.194091
0.205793
0.220084
0.23654
0.254571
0.273408
0.29205
0.309217
0.323334
0.332546
0.334682
0.327102
0.306315
0.267113
0.20062
0.0905235
-0.0870735
-0.337492
0.179881
0.186097
0.195157
0.20732
0.222296
0.239742
0.25917
0.279914
0.301078
0.321491
0.339702
0.354001
0.362416
0.36263
0.351715
0.325464
0.276743
0.190919
0.0264689
-0.406261
0.0879571
0.0841768
0.0817247
0.0793081
0.0770183
0.0749199
0.0730312
0.0713381
0.0698222
0.0684707
0.0672694
0.0661972
0.0652352
0.0643675
0.063581
0.0628696
0.0622216
0.0616223
0.0610498
0.0604709
0.0891177
0.0872416
0.085124
0.082589
0.0799545
0.0774331
0.0751323
0.0731079
0.0713753
0.0699106
0.0686729
0.0676174
0.0667117
0.0659344
0.0652467
0.0645892
0.0638823
0.0630017
0.0617292
0.0597627
0.0946103
0.0925117
0.0900174
0.0870373
0.0839078
0.0808187
0.0778943
0.0752438
0.0729296
0.0709599
0.0693066
0.0679288
0.0667841
0.065829
0.0650036
0.0642152
0.0633224
0.0621147
0.06029
0.0575134
0.102419
0.100027
0.0971057
0.0935301
0.0896732
0.0858065
0.0820976
0.0786479
0.0755068
0.0726963
0.0702261
0.0680894
0.0662569
0.0646722
0.0632539
0.0618951
0.0604467
0.058682
0.0562704
0.0528418
0.112245
0.109269
0.105593
0.101307
0.0967316
0.0920509
0.087459
0.083058
0.0788489
0.0748538
0.0711638
0.0678684
0.064994
0.0625078
0.0603286
0.058325
0.0563129
0.0540325
0.0511176
0.0471646
0.12262
0.119432
0.115453
0.110731
0.105522
0.100028
0.0944963
0.088987
0.0834976
0.0781095
0.0729303
0.0681058
0.0637564
0.0599195
0.0565442
0.0535055
0.0505942
0.0475054
0.0438409
0.0391804
0.132672
0.129795
0.126184
0.121703
0.116295
0.110132
0.103547
0.096737
0.0898556
0.0829565
0.0760786
0.0693968
0.0631405
0.0574565
0.0523619
0.0477526
0.0434243
0.0390744
0.0342989
0.0286667
0.141822
0.139712
0.13703
0.133502
0.128769
0.122642
0.115294
0.10708
0.0984622
0.0897316
0.0809906
0.0723323
0.063938
0.0560064
0.0486541
0.0418637
0.0354897
0.02929
0.0228975
0.0158897
0.149823
0.148732
0.147366
0.145328
0.142012
0.136878
0.12974
0.120824
0.110616
0.0996988
0.0884908
0.0773122
0.0664429
0.0560258
0.0459783
0.036368
0.0272893
0.0186016
0.00996858
0.00103886
0.156527
0.156623
0.156771
0.156529
0.155137
0.151819
0.146025
0.137585
0.126814
0.114274
0.100636
0.0865238
0.0723611
0.0583563
0.0446653
0.0314789
0.0189521
0.00705448
-0.00447845
-0.0159022
0.161982
0.163293
0.164995
0.166681
0.167527
0.166609
0.163138
0.156578
0.146731
0.133816
0.118365
0.10109
0.0827805
0.064091
0.0456896
0.0279881
0.011005
-0.0051653
-0.0204632
-0.0349187
0.166334
0.168754
0.171941
0.175558
0.178761
0.180572
0.180036
0.176315
0.168736
0.156932
0.141104
0.121879
0.100082
0.0766695
0.0526227
0.028768
0.00568419
-0.0162626
-0.0368137
-0.0558993
0.169782
0.17312
0.177634
0.183072
0.18859
0.193213
0.195905
0.195625
0.191372
0.18228
0.167832
0.148151
0.123966
0.0963595
0.0666055
0.0359611
0.00546406
-0.0241196
-0.0522899
-0.0787504
0.172523
0.176557
0.182213
0.189244
0.196894
0.204233
0.210197
0.213648
0.21339
0.208206
0.197003
0.17906
0.154372
0.123784
0.0886412
0.0505053
0.0109559
-0.0286137
-0.0671154
-0.103688
0.174658
0.179264
0.185858
0.194229
0.203736
0.213537
0.222607
0.229791
0.233821
0.233265
0.226633
0.212548
0.189967
0.158584
0.119202
0.0734996
0.0235374
-0.0285584
-0.0808392
-0.131565
0.176298
0.181389
0.188732
0.198218
0.209296
0.221232
0.23309
0.243781
0.252043
0.256369
0.255052
0.246285
0.228265
0.199363
0.158611
0.106508
0.0451361
-0.0226338
-0.0937257
-0.164963
0.177565
0.183039
0.190976
0.201371
0.21375
0.22749
0.241769
0.255598
0.267777
0.27683
0.281004
0.278318
0.266559
0.243231
0.205578
0.151117
0.0792477
-0.00761505
-0.105697
-0.210066
0.17854
0.184323
0.192727
0.203851
0.217288
0.232522
0.248851
0.265395
0.281048
0.294419
0.30382
0.307281
0.30251
0.286735
0.256374
0.206531
0.13091
0.0247199
-0.110777
-0.272405
0.179295
0.18532
0.194091
0.205794
0.220085
0.236541
0.254572
0.273409
0.29205
0.309215
0.323328
0.332535
0.334663
0.327069
0.306263
0.26703
0.200489
0.0903111
-0.0874191
-0.338035
0.179881
0.186097
0.195158
0.20732
0.222297
0.239743
0.259171
0.279914
0.301077
0.321488
0.339696
0.353989
0.362397
0.362599
0.351667
0.325391
0.276629
0.190735
0.0261451
-0.406988
0.0879614
0.0841767
0.0817134
0.079282
0.0769657
0.0748258
0.0729016
0.0712149
0.069761
0.0685077
0.067409
0.0664173
0.0655086
0.064677
0.063918
0.0632215
0.0625698
0.0619378
0.0612902
0.0605803
0.0891219
0.0872525
0.085145
0.0826217
0.0799901
0.0774599
0.0751224
0.0730388
0.0712626
0.0697925
0.0685771
0.0675519
0.0666674
0.0658886
0.0651781
0.064492
0.0637659
0.0628868
0.0616398
0.0597307
0.0946167
0.0925375
0.090068
0.0870929
0.0839314
0.0808097
0.0778687
0.0752082
0.0728853
0.0709063
0.0692386
0.0678337
0.0666476
0.0656428
0.0647718
0.0639569
0.063065
0.0618896
0.0601303
0.0574479
0.102412
0.100024
0.0971071
0.0935445
0.0897016
0.0858394
0.0821211
0.0786517
0.0754914
0.0726679
0.0701928
0.0680581
0.0662289
0.0646443
0.0632221
0.0618566
0.0603998
0.0586269
0.056209
0.0527774
0.112272
0.109265
0.105557
0.101261
0.0966995
0.0920516
0.0875184
0.0831441
0.0788871
0.0748337
0.0711174
0.0678239
0.0649601
0.0624796
0.0602975
0.0582851
0.0562626
0.0539727
0.0510497
0.047089
0.122628
0.119426
0.115445
0.110734
0.105539
0.100015
0.0944376
0.0889308
0.0834404
0.0780836
0.0729532
0.0681492
0.0637915
0.059936
0.056544
0.0534916
0.0505652
0.0474601
0.0437819
0.0391107
0.132673
0.129792
0.126195
0.121743
0.116366
0.110147
0.103429
0.0965434
0.0896331
0.0828106
0.0760962
0.0695237
0.0632789
0.0575553
0.052417
0.0477797
0.0434381
0.0390806
0.034299
0.0286613
0.141822
0.139715
0.137041
0.133527
0.128806
0.122658
0.115242
0.106994
0.0983473
0.0896049
0.0809418
0.0723697
0.0639962
0.0560374
0.0486508
0.0418434
0.0354742
0.0292883
0.0229064
0.0159045
0.149824
0.148731
0.147372
0.145338
0.142023
0.136886
0.129754
0.120857
0.110647
0.0997297
0.0885327
0.0773231
0.0664736
0.0560081
0.0458812
0.0362441
0.0271785
0.01852
0.00991691
0.00101069
0.156532
0.156618
0.156771
0.156534
0.155144
0.151835
0.146073
0.137674
0.126913
0.114371
0.100676
0.0865009
0.0723189
0.0582602
0.0445051
0.031291
0.0187701
0.00689706
-0.00460331
-0.0159956
0.161983
0.16329
0.164995
0.166684
0.167533
0.166626
0.163176
0.156636
0.146813
0.13394
0.11854
0.101271
0.0828714
0.0640826
0.0456268
0.0278815
0.0108731
-0.0053003
-0.0205884
-0.0350283
0.166334
0.168754
0.171942
0.17556
0.178766
0.180583
0.180056
0.176348
0.168785
0.157001
0.141184
0.121949
0.100124
0.0766817
0.0526161
0.0287558
0.00566719
-0.0162856
-0.0368373
-0.0559199
0.169782
0.17312
0.177634
0.183073
0.188593
0.19322
0.195917
0.195644
0.191398
0.182311
0.167863
0.148179
0.123988
0.0963744
0.0666102
0.0359554
0.00545057
-0.0241367
-0.0523077
-0.0787667
0.172522
0.176558
0.182214
0.189246
0.196897
0.204238
0.210205
0.213659
0.213403
0.208219
0.197016
0.179072
0.15438
0.123783
0.0886306
0.0504856
0.0109287
-0.0286464
-0.0671517
-0.103727
0.174658
0.179265
0.185858
0.19423
0.203738
0.21354
0.222612
0.229797
0.233828
0.233271
0.226638
0.212549
0.189963
0.158572
0.119178
0.0734645
0.0234909
-0.0286156
-0.0809059
-0.131639
0.176298
0.181389
0.188732
0.198219
0.209298
0.221234
0.233094
0.243785
0.252047
0.256372
0.255052
0.246281
0.228253
0.199342
0.158577
0.10646
0.0450697
-0.0227181
-0.0938284
-0.165084
0.177565
0.183039
0.190977
0.201372
0.213752
0.227492
0.241772
0.255601
0.26778
0.276831
0.281002
0.278311
0.266544
0.243206
0.205539
0.151058
0.079166
-0.00772398
-0.105837
-0.210242
0.178541
0.184323
0.192728
0.203851
0.217289
0.232524
0.248854
0.265397
0.281049
0.294419
0.303816
0.307273
0.302494
0.286709
0.256333
0.20647
0.130821
0.0245935
-0.110952
-0.272645
0.179295
0.18532
0.194092
0.205795
0.220086
0.236542
0.254574
0.27341
0.29205
0.309213
0.323324
0.332526
0.334646
0.327044
0.306224
0.266972
0.200403
0.0901806
-0.0876199
-0.338341
0.179881
0.186098
0.195158
0.207321
0.222298
0.239744
0.259173
0.279916
0.301078
0.321486
0.339691
0.35398
0.362381
0.362575
0.351632
0.325339
0.276554
0.19062
0.0259568
-0.407384
0.087959
0.0841789
0.0817275
0.0793114
0.0770207
0.0749194
0.0730304
0.0713443
0.0698394
0.068492
0.0672747
0.0661672
0.065165
0.0642671
0.063467
0.062756
0.0621218
0.0615463
0.0610083
0.0604799
0.0891254
0.0872522
0.0851389
0.0826006
0.0799454
0.0773966
0.075066
0.0730128
0.0712684
0.0698236
0.0686346
0.0676451
0.0668066
0.0660802
0.0654248
0.064784
0.0640709
0.0631439
0.0617708
0.0596669
0.0946224
0.0925333
0.0900542
0.0870694
0.0838993
0.0807682
0.0778258
0.0751777
0.0728768
0.0709263
0.0692887
0.0679065
0.0667315
0.0657281
0.064851
0.0640244
0.0631219
0.0619398
0.0601789
0.057501
0.102399
0.100039
0.0971321
0.0935433
0.0896638
0.0857925
0.0820918
0.0786451
0.0754963
0.0726717
0.0701903
0.0680506
0.0662202
0.0646379
0.0632195
0.061859
0.0604081
0.0586414
0.0562291
0.052802
0.112267
0.109284
0.105605
0.101289
0.0966603
0.0919582
0.0874298
0.0831231
0.0789179
0.0748713
0.07114
0.0678266
0.0649473
0.0624583
0.0602735
0.0582611
0.0562392
0.05395
0.0510274
0.0470663
0.122638
0.119432
0.115436
0.110705
0.105499
0.100023
0.0945123
0.0890067
0.0835055
0.078097
0.0729007
0.0680664
0.0637123
0.0598712
0.0564886
0.0534351
0.0504984
0.0473812
0.043694
0.0390178
0.132663
0.129806
0.126187
0.121706
0.116298
0.110125
0.103531
0.0967156
0.0898357
0.0829362
0.0760548
0.0693676
0.063106
0.0574172
0.0523154
0.0476986
0.0433635
0.0390056
0.034221
0.028579
0.141827
0.139712
0.137033
0.133509
0.128785
0.122672
0.115338
0.107122
0.0984403
0.0896648
0.0808859
0.0722274
0.063836
0.0558781
0.0484886
0.0416908
0.0353624
0.0292265
0.0228816
0.0159049
0.149828
0.148728
0.147369
0.145337
0.142031
0.136917
0.129814
0.120945
0.110772
0.0998428
0.0886592
0.0775314
0.0665372
0.055825
0.0455881
0.03597
0.0269619
0.0183601
0.00980737
0.000940832
0.156529
0.156621
0.156771
0.156537
0.155154
0.151854
0.146096
0.13771
0.126995
0.114518
0.100822
0.0866056
0.0723019
0.058139
0.0443432
0.031114
0.0185831
0.00672098
-0.00473371
-0.0160535
0.161986
0.16329
0.164997
0.166687
0.167539
0.166636
0.163191
0.156664
0.146865
0.134009
0.118614
0.101353
0.0830061
0.0643659
0.0459121
0.0279688
0.0107984
-0.00544809
-0.0207716
-0.0352376
0.166335
0.168754
0.171944
0.175564
0.178771
0.180591
0.18007
0.17637
0.168815
0.157038
0.141233
0.122013
0.100188
0.0767135
0.0526416
0.0288471
0.00579785
-0.0161761
-0.0367961
-0.0559743
0.169781
0.173121
0.177636
0.183076
0.188597
0.193226
0.195927
0.195658
0.191416
0.182334
0.167892
0.148211
0.12403
0.0964345
0.0666731
0.0359901
0.00545734
-0.0241428
-0.0523196
-0.0787793
0.172522
0.176558
0.182215
0.189248
0.1969
0.204243
0.210212
0.213668
0.213414
0.208233
0.197032
0.17909
0.1544
0.1238
0.0886388
0.0504834
0.0109178
-0.028664
-0.0671745
-0.103755
0.174658
0.179265
0.185859
0.194232
0.203741
0.213544
0.222618
0.229804
0.233836
0.23328
0.226647
0.212557
0.189968
0.158571
0.11917
0.0734467
0.0234615
-0.028658
-0.0809623
-0.131709
0.176298
0.18139
0.188733
0.19822
0.2093
0.221237
0.233098
0.24379
0.252052
0.256377
0.255056
0.246283
0.228252
0.199334
0.15856
0.106429
0.0450219
-0.0227865
-0.0939207
-0.165202
0.177565
0.18304
0.190977
0.201373
0.213754
0.227494
0.241775
0.255605
0.267783
0.276834
0.281003
0.27831
0.266539
0.243194
0.205516
0.15102
0.0791046
-0.00781474
-0.105965
-0.210413
0.17854
0.184324
0.192728
0.203852
0.217291
0.232526
0.248856
0.2654
0.281052
0.29442
0.303816
0.30727
0.302488
0.286696
0.256309
0.206429
0.130753
0.0244872
-0.111112
-0.272878
0.179295
0.185321
0.194093
0.205796
0.220087
0.236544
0.254576
0.273412
0.292052
0.309214
0.323323
0.332523
0.334639
0.32703
0.3062
0.266933
0.200337
0.0900709
-0.0878051
-0.338643
0.179881
0.186098
0.195159
0.207322
0.222299
0.239746
0.259175
0.279917
0.301079
0.321486
0.33969
0.353977
0.362374
0.362562
0.351611
0.325304
0.276497
0.190526
0.0257869
-0.407771
0.0879642
0.0841777
0.0817107
0.0792767
0.0769548
0.07482
0.0729326
0.0712867
0.0698316
0.0685325
0.0673717
0.0663368
0.065411
0.0645787
0.0638252
0.0631349
0.0624891
0.0618645
0.0612292
0.0605388
0.0891302
0.0872569
0.0851458
0.08261
0.079956
0.0774019
0.0750595
0.072992
0.0712332
0.0697806
0.0685933
0.0676105
0.0667824
0.0660667
0.0654167
0.0647709
0.0640413
0.0630903
0.0616947
0.0595834
0.0946477
0.0925357
0.09003
0.0870594
0.0839243
0.0808038
0.0778346
0.0751479
0.072823
0.0708719
0.0692499
0.0678877
0.0667322
0.0657455
0.0648802
0.0640586
0.0631494
0.0619428
0.0601362
0.0573982
0.102401
0.100029
0.0971207
0.0935458
0.0896859
0.085824
0.0821185
0.0786577
0.0754947
0.0726611
0.0701742
0.0680303
0.0661967
0.0646139
0.0631983
0.061842
0.060395
0.0586307
0.0562194
0.0527923
0.112265
0.109277
0.105597
0.10128
0.0966766
0.0920082
0.0874595
0.0831142
0.0788938
0.0748495
0.0711228
0.067809
0.0649267
0.0624347
0.0602472
0.0582313
0.0562052
0.0539116
0.0509848
0.0470203
0.122637
0.119421
0.115431
0.110712
0.105514
0.100028
0.0945123
0.0890004
0.0834964
0.0780892
0.0728916
0.068054
0.0636953
0.0598479
0.0564575
0.0533955
0.0504498
0.0473239
0.043629
0.0389464
0.132659
0.129807
0.126185
0.121703
0.116292
0.110118
0.103529
0.0967131
0.0898322
0.0829335
0.0760508
0.0693614
0.0630964
0.0574009
0.052289
0.0476595
0.0433097
0.038935
0.0341328
0.0284743
0.141826
0.139714
0.137031
0.133505
0.128782
0.122672
0.11534
0.107129
0.0984478
0.0896716
0.0808871
0.0722207
0.0638208
0.0558541
0.0484554
0.0416463
0.0353031
0.0291466
0.0227769
0.0157735
0.149818
0.148737
0.147371
0.145335
0.14203
0.136921
0.129828
0.120968
0.110799
0.0998618
0.0886646
0.07752
0.0665087
0.0557868
0.0455436
0.0359154
0.0268928
0.018274
0.00970051
0.000810405
0.156524
0.156628
0.156775
0.156537
0.155155
0.151861
0.146114
0.137741
0.127034
0.114558
0.100852
0.0866047
0.0722695
0.0580877
0.0442841
0.0310437
0.018492
0.00660389
-0.00487429
-0.0162126
0.161982
0.163292
0.164999
0.166688
0.167543
0.166645
0.163205
0.156684
0.14689
0.134039
0.118649
0.101387
0.0830236
0.0643681
0.045895
0.0279148
0.0107081
-0.00557052
-0.0209263
-0.035425
0.166339
0.168752
0.171945
0.175565
0.178775
0.180598
0.18008
0.176382
0.168829
0.157055
0.141255
0.122041
0.100218
0.0767337
0.052638
0.0288213
0.00575505
-0.0162402
-0.0368892
-0.0561004
0.169784
0.173119
0.177637
0.183078
0.188601
0.193232
0.195933
0.195666
0.191425
0.182344
0.167906
0.148228
0.124049
0.0964522
0.066683
0.035988
0.00544244
-0.0241707
-0.0523619
-0.0788359
0.172523
0.176558
0.182216
0.189249
0.196903
0.204247
0.210217
0.213674
0.213422
0.20824
0.197041
0.179102
0.154414
0.123814
0.0886506
0.0504923
0.0109237
-0.0286614
-0.0671754
-0.10376
0.174659
0.179265
0.18586
0.194233
0.203743
0.213547
0.222622
0.229809
0.233841
0.233285
0.226653
0.212566
0.189979
0.158583
0.119184
0.0734651
0.0234841
-0.0286308
-0.0809307
-0.131673
0.176298
0.18139
0.188734
0.198221
0.209302
0.22124
0.233102
0.243794
0.252056
0.256381
0.255061
0.246289
0.228261
0.199347
0.158578
0.106456
0.0450598
-0.0227359
-0.093857
-0.165126
0.177565
0.18304
0.190978
0.201374
0.213755
0.227497
0.241778
0.255608
0.267787
0.276838
0.281008
0.278316
0.266547
0.243207
0.205536
0.151053
0.0791555
-0.00774091
-0.105865
-0.210286
0.178541
0.184324
0.192729
0.203853
0.217292
0.232528
0.248858
0.265403
0.281055
0.294424
0.30382
0.307275
0.302495
0.286708
0.256329
0.206463
0.13081
0.0245792
-0.110974
-0.272683
0.179295
0.185321
0.194093
0.205797
0.220089
0.236546
0.254579
0.273415
0.292055
0.309217
0.323327
0.332527
0.334646
0.327041
0.306219
0.266964
0.200392
0.0901671
-0.0876384
-0.338377
0.179881
0.186098
0.195159
0.207323
0.222301
0.239748
0.259177
0.27992
0.301081
0.321489
0.339693
0.35398
0.362379
0.362572
0.351627
0.325331
0.276544
0.190609
0.0259415
-0.407401
0.0879629
0.0841803
0.0817271
0.0793104
0.0770161
0.0749071
0.0730116
0.071328
0.0698369
0.0685049
0.0672946
0.0661756
0.0651371
0.0641874
0.0633445
0.0626213
0.0620157
0.0615126
0.0610705
0.0606063
0.0891328
0.0872593
0.0851442
0.0825993
0.079934
0.0773762
0.0750438
0.0729904
0.0712388
0.0697869
0.0685971
0.0676128
0.0667922
0.0660946
0.0654635
0.0648255
0.0640912
0.0631255
0.0617072
0.0595616
0.0946438
0.0925286
0.0900234
0.0870573
0.0839255
0.0807942
0.0778141
0.0751236
0.0727952
0.0708346
0.0692079
0.067866
0.0667575
0.0658266
0.0650077
0.0642115
0.0633035
0.0620765
0.0602289
0.0574249
0.102444
0.100007
0.0970512
0.093497
0.0896956
0.085851
0.0821336
0.0786632
0.0754984
0.0726656
0.0701773
0.06803
0.0661936
0.0646096
0.0631942
0.0618391
0.0603931
0.0586288
0.0562179
0.0527939
0.112262
0.109293
0.105629
0.101297
0.0966574
0.0919419
0.0873662
0.0830737
0.0789295
0.0749013
0.0711531
0.0678154
0.0649183
0.0624196
0.0602295
0.0582115
0.0561805
0.0538792
0.0509438
0.0469714
0.122657
0.119432
0.115421
0.110695
0.105508
0.100013
0.0944677
0.0889501
0.083449
0.0780768
0.0729136
0.0680815
0.0637078
0.0598412
0.0564342
0.0533583
0.050401
0.0472646
0.0435583
0.0388632
0.132665
0.129806
0.126202
0.121751
0.116375
0.110149
0.103423
0.0965236
0.0895927
0.0827545
0.0760206
0.0694316
0.0631769
0.0574439
0.0522908
0.0476335
0.0432675
0.0388806
0.0340658
0.0283943
0.141827
0.139719
0.137046
0.133539
0.128821
0.122669
0.115245
0.106981
0.0983053
0.0895398
0.0808567
0.0722614
0.0638634
0.0558817
0.0484769
0.0416612
0.0352953
0.029109
0.0227167
0.0156972
0.149818
0.148739
0.147377
0.145347
0.142038
0.136909
0.129783
0.120883
0.110656
0.0997057
0.0884658
0.0772117
0.0663147
0.0558077
0.0456628
0.036026
0.026969
0.018329
0.0097467
0.000860905
0.156531
0.15662
0.156777
0.156542
0.155159
0.151864
0.146116
0.137724
0.126951
0.114389
0.100659
0.0864445
0.0721894
0.0580933
0.0443394
0.0311152
0.0185623
0.00666084
-0.00483549
-0.0161914
0.161983
0.163293
0.165
0.166692
0.167548
0.166653
0.163216
0.156681
0.146849
0.133966
0.118565
0.101309
0.0829639
0.0643259
0.0458794
0.0279354
0.0107556
-0.00551257
-0.0208656
-0.0353614
0.166337
0.168754
0.171946
0.175567
0.178779
0.180604
0.180085
0.17638
0.168817
0.157033
0.141224
0.122004
0.100184
0.0767114
0.0526302
0.0288206
0.00576068
-0.0162283
-0.0368752
-0.0560865
0.169784
0.17312
0.177638
0.18308
0.188604
0.193235
0.195936
0.195667
0.191424
0.18234
0.167897
0.148217
0.124037
0.0964426
0.0666782
0.0359884
0.00544512
-0.0241684
-0.05236
-0.0788333
0.172524
0.176558
0.182217
0.189251
0.196905
0.204249
0.210219
0.213676
0.213423
0.208242
0.197041
0.179101
0.154414
0.123816
0.0886569
0.0505019
0.0109355