/*--------------------------------*- C++ -*----------------------------------*\
| =========                 |                                                 |
| \\      /  F ield         | OpenFOAM: The Open Source CFD Toolbox           |
|  \\    /   O peration     | Version:  4.x                                   |
|   \\  /    A nd           | Web:      www.OpenFOAM.org                      |
|    \\/     M anipulation  |                                                 |
\*---------------------------------------------------------------------------*/
FoamFile
{
    version     2.0;
    format      ascii;
    class       volScalarField;
    location    "250";
    object      pPrime2Mean;
}
// * * * * * * * * * * * * * * * * * * * * * * * * * * * * * * * * * * * * * //

dimensions      [0 4 -4 0 0 0 0];

internalField   nonuniform List<scalar> 
112000
(
15.8537
14.8447
14.2029
13.6494
13.171
12.7567
12.3974
12.0852
11.8136
11.5768
11.3703
11.19
11.0322
10.8943
10.7734
10.6675
10.5746
10.4932
10.4216
10.3583
15.8684
14.8583
14.2153
13.6605
13.1809
12.7655
12.4052
12.0922
11.8198
11.5825
11.3754
11.1946
11.0365
10.8982
10.7771
10.6709
10.5778
10.4961
10.4244
10.361
15.8772
14.8765
14.2319
13.6756
13.1946
12.7778
12.4163
12.1021
11.8287
11.5905
11.3827
11.2012
11.0425
10.9037
10.7821
10.6756
10.5822
10.5002
10.4283
10.3646
15.8893
14.8963
14.2504
13.6931
13.2109
12.793
12.4303
12.1149
11.8404
11.6012
11.3924
11.2101
11.0507
10.9112
10.789
10.682
10.5881
10.5057
10.4334
10.3694
15.9035
14.9156
14.2692
13.7113
13.2286
12.8101
12.4465
12.1302
11.8546
11.6143
11.4045
11.2212
11.0609
10.9206
10.7977
10.69
10.5956
10.5126
10.4399
10.3754
15.9187
14.9333
14.2869
13.7292
13.2466
12.828
12.4641
12.1472
11.871
11.6298
11.419
11.2348
11.0735
10.9323
10.8085
10.7001
10.6049
10.5213
10.448
10.383
15.9338
14.9487
14.3029
13.7459
13.264
12.846
12.4824
12.1656
11.889
11.6474
11.4359
11.2508
11.0887
10.9465
10.8219
10.7125
10.6164
10.5321
10.458
10.3924
15.948
14.9616
14.3168
13.761
13.2804
12.8636
12.5009
12.1848
11.9085
11.6668
11.4551
11.2694
11.1065
10.9635
10.8379
10.7276
10.6307
10.5455
10.4706
10.4043
15.9608
14.9722
14.3286
13.7744
13.2956
12.8804
12.5193
12.2044
11.9291
11.6879
11.4763
11.2904
11.127
10.9833
10.857
10.7458
10.648
10.5619
10.4861
10.419
15.9719
14.9806
14.3384
13.786
13.3092
12.8962
12.5372
12.2241
11.9503
11.7102
11.4993
11.3137
11.1501
11.0061
10.8791
10.7672
10.6685
10.5815
10.5048
10.4369
15.9813
14.9872
14.3463
13.7957
13.321
12.9104
12.5538
12.2431
11.9715
11.7332
11.5237
11.3389
11.1758
11.0317
10.9043
10.7918
10.6924
10.6046
10.5271
10.4584
15.989
14.9923
14.3526
13.8036
13.331
12.9228
12.5689
12.261
11.9921
11.7563
11.5487
11.3656
11.2035
11.0599
10.9326
10.8198
10.7199
10.6314
10.553
10.4836
15.9954
14.9962
14.3575
13.81
13.3393
12.9334
12.5822
12.2772
12.0113
11.7785
11.5738
11.3929
11.2326
11.0903
10.9636
10.8509
10.7507
10.6617
10.5827
10.5126
16.0004
14.9992
14.3613
13.815
13.3459
12.9421
12.5935
12.2914
12.0287
11.7992
11.5978
11.42
11.2625
11.1221
10.9968
10.8848
10.7847
10.6955
10.6161
10.5454
16.0046
15.0014
14.3641
13.8189
13.3513
12.9493
12.6029
12.3036
12.044
11.818
11.6202
11.4461
11.2918
11.1545
11.0315
10.921
10.8218
10.7328
10.6532
10.5822
16.008
15.0031
14.3664
13.822
13.3555
12.955
12.6106
12.3137
12.0571
11.8344
11.6403
11.4702
11.32
11.1863
11.0667
10.9589
10.8614
10.7733
10.6941
10.6233
16.0107
15.0044
14.3681
13.8244
13.3587
12.9595
12.6168
12.3219
12.0679
11.8484
11.6579
11.4918
11.346
11.2169
11.1015
10.9975
10.9031
10.8171
10.7394
10.6699
16.013
15.0054
14.3695
13.8262
13.3613
12.9631
12.6217
12.3287
12.0768
11.8601
11.673
11.5108
11.3694
11.245
11.1347
11.0357
10.9459
10.864
10.7897
10.7244
16.0148
15.0062
14.3705
13.8276
13.3634
12.9659
12.6256
12.334
12.0842
11.8698
11.6856
11.527
11.3897
11.2702
11.1653
11.0722
10.9887
10.9132
10.8459
10.7884
16.0162
15.0068
14.3714
13.8288
13.365
12.9682
12.6288
12.3384
12.09
11.8777
11.6961
11.5406
11.4071
11.2921
11.1926
11.1059
11.0297
10.9628
10.9058
10.8805
15.8724
14.8405
14.1999
13.6473
13.1695
12.7556
12.3966
12.0846
11.8131
11.5764
11.37
11.1897
11.032
10.8941
10.7733
10.6674
10.5745
10.4931
10.4215
10.3583
15.8847
14.854
14.2122
13.6582
13.1793
12.7644
12.4044
12.0916
11.8194
11.5822
11.3752
11.1944
11.0363
10.898
10.7769
10.6708
10.5777
10.496
10.4244
10.361
15.8936
14.8715
14.2282
13.6729
13.1926
12.7765
12.4153
12.1014
11.8282
11.5901
11.3824
11.201
11.0423
10.9036
10.782
10.6755
10.5821
10.5002
10.4282
10.3646
15.9055
14.8907
14.2463
13.6901
13.2087
12.7914
12.4291
12.1141
11.8398
11.6007
11.3921
11.2098
11.0505
10.911
10.7889
10.6819
10.588
10.5056
10.4334
10.3694
15.9192
14.9098
14.2649
13.7081
13.2262
12.8083
12.4452
12.1292
11.8539
11.6138
11.4041
11.2209
11.0607
10.9204
10.7976
10.6899
10.5955
10.5125
10.4398
10.3754
15.9337
14.9274
14.2825
13.7259
13.2442
12.8261
12.4627
12.1462
11.8702
11.6292
11.4186
11.2345
11.0733
10.9321
10.8084
10.6999
10.6047
10.5212
10.4479
10.3829
15.9481
14.9429
14.2986
13.7427
13.2616
12.8442
12.4811
12.1646
11.8882
11.6468
11.4355
11.2505
11.0884
10.9463
10.8217
10.7123
10.6163
10.532
10.4579
10.3924
15.9615
14.9561
14.3127
13.7581
13.2782
12.8619
12.4997
12.1838
11.9078
11.6663
11.4546
11.269
11.1062
10.9633
10.8378
10.7274
10.6305
10.5453
10.4705
10.4042
15.9737
14.9669
14.3248
13.7716
13.2936
12.8789
12.5182
12.2036
11.9284
11.6874
11.4759
11.2901
11.1267
10.9831
10.8568
10.7456
10.6478
10.5617
10.4859
10.4189
15.9841
14.9756
14.3348
13.7834
13.3073
12.8948
12.5362
12.2233
11.9497
11.7098
11.4989
11.3134
11.1499
11.0058
10.8788
10.767
10.6683
10.5814
10.5047
10.4368
15.993
14.9825
14.3429
13.7932
13.3193
12.9091
12.5529
12.2424
11.971
11.7328
11.5234
11.3387
11.1756
11.0315
10.9042
10.7917
10.6923
10.6045
10.527
10.4583
16.0003
14.9877
14.3494
13.8014
13.3294
12.9217
12.5681
12.2604
11.9917
11.7559
11.5484
11.3653
11.2033
11.0597
10.9325
10.8197
10.7197
10.6312
10.5529
10.4834
16.0063
14.9918
14.3544
13.8079
13.3378
12.9323
12.5814
12.2767
12.011
11.7782
11.5735
11.3927
11.2325
11.0901
10.9635
10.8508
10.7506
10.6616
10.5826
10.5124
16.0111
14.9949
14.3584
13.813
13.3446
12.9412
12.5928
12.2909
12.0284
11.799
11.5976
11.4199
11.2623
11.122
10.9967
10.8847
10.7847
10.6954
10.616
10.5453
16.015
14.9973
14.3614
13.817
13.35
12.9484
12.6023
12.3031
12.0437
11.8178
11.62
11.446
11.2918
11.1544
11.0313
10.9209
10.8217
10.7327
10.6531
10.5821
16.0183
14.9991
14.3637
13.8201
13.3543
12.9542
12.61
12.3133
12.0568
11.8342
11.6402
11.4701
11.3199
11.1863
11.0667
10.9588
10.8613
10.7732
10.6941
10.6232
16.0209
15.0005
14.3655
13.8226
13.3576
12.9587
12.6162
12.3216
12.0677
11.8482
11.6578
11.4917
11.3459
11.2168
11.1014
10.9974
10.903
10.817
10.7393
10.6699
16.023
15.0016
14.3669
13.8245
13.3602
12.9624
12.6212
12.3283
12.0766
11.8599
11.6729
11.5107
11.3693
11.245
11.1346
11.0356
10.9459
10.8641
10.7897
10.7244
16.0247
15.0024
14.368
13.826
13.3623
12.9653
12.6252
12.3337
12.084
11.8697
11.6855
11.5269
11.3897
11.2702
11.1653
11.0722
10.9887
10.9132
10.8459
10.7884
16.0261
15.003
14.3689
13.8272
13.3639
12.9676
12.6284
12.3381
12.0898
11.8776
11.696
11.5405
11.4071
11.2921
11.1926
11.1059
11.0298
10.9628
10.9058
10.8808
15.8724
14.8405
14.1999
13.6473
13.1695
12.7556
12.3966
12.0846
11.8131
11.5764
11.37
11.1897
11.032
10.8941
10.7733
10.6674
10.5745
10.4931
10.4215
10.3583
15.8847
14.854
14.2122
13.6582
13.1793
12.7644
12.4044
12.0916
11.8194
11.5822
11.3751
11.1944
11.0363
10.898
10.7769
10.6708
10.5777
10.496
10.4244
10.361
15.8936
14.8715
14.2282
13.6729
13.1926
12.7765
12.4153
12.1014
11.8282
11.5901
11.3824
11.201
11.0423
10.9035
10.782
10.6755
10.5821
10.5001
10.4282
10.3646
15.9055
14.8907
14.2463
13.69
13.2087
12.7914
12.4291
12.1141
11.8398
11.6007
11.3921
11.2098
11.0505
10.911
10.7889
10.6818
10.588
10.5056
10.4333
10.3694
15.9192
14.9098
14.2649
13.7081
13.2262
12.8083
12.4452
12.1292
11.8539
11.6138
11.4041
11.2209
11.0607
10.9204
10.7976
10.6899
10.5955
10.5125
10.4398
10.3754
15.9337
14.9274
14.2825
13.7259
13.2442
12.8261
12.4627
12.1462
11.8702
11.6292
11.4186
11.2345
11.0733
10.9321
10.8084
10.6999
10.6048
10.5212
10.4479
10.383
15.9481
14.9429
14.2986
13.7428
13.2616
12.8442
12.4811
12.1646
11.8882
11.6468
11.4355
11.2505
11.0884
10.9463
10.8217
10.7123
10.6163
10.532
10.4579
10.3924
15.9615
14.9561
14.3127
13.7581
13.2782
12.862
12.4997
12.1838
11.9078
11.6663
11.4546
11.269
11.1062
10.9633
10.8378
10.7274
10.6305
10.5453
10.4705
10.4042
15.9737
14.9669
14.3248
13.7716
13.2936
12.8789
12.5182
12.2036
11.9284
11.6874
11.4759
11.2901
11.1267
10.9831
10.8568
10.7456
10.6478
10.5617
10.4859
10.4189
15.9841
14.9756
14.3348
13.7834
13.3073
12.8948
12.5362
12.2233
11.9497
11.7098
11.4989
11.3134
11.1499
11.0059
10.8789
10.767
10.6683
10.5814
10.5047
10.4368
15.993
14.9825
14.3429
13.7932
13.3193
12.9091
12.5529
12.2424
11.971
11.7328
11.5234
11.3387
11.1756
11.0315
10.9042
10.7917
10.6923
10.6045
10.527
10.4583
16.0003
14.9877
14.3494
13.8014
13.3294
12.9217
12.5681
12.2604
11.9917
11.7559
11.5484
11.3653
11.2033
11.0597
10.9325
10.8197
10.7197
10.6312
10.5529
10.4834
16.0063
14.9918
14.3544
13.8079
13.3378
12.9323
12.5814
12.2767
12.011
11.7782
11.5735
11.3927
11.2325
11.0901
10.9635
10.8508
10.7506
10.6616
10.5826
10.5124
16.0111
14.9949
14.3584
13.813
13.3446
12.9412
12.5928
12.2909
12.0284
11.799
11.5976
11.4199
11.2623
11.122
10.9967
10.8847
10.7847
10.6954
10.616
10.5453
16.0151
14.9973
14.3614
13.817
13.35
12.9484
12.6023
12.3031
12.0437
11.8178
11.62
11.446
11.2918
11.1544
11.0314
10.9209
10.8217
10.7327
10.6531
10.5821
16.0183
14.9991
14.3637
13.8201
13.3543
12.9542
12.61
12.3133
12.0568
11.8342
11.6402
11.4701
11.3199
11.1863
11.0667
10.9588
10.8613
10.7732
10.6941
10.6232
16.0209
15.0005
14.3655
13.8226
13.3576
12.9587
12.6162
12.3216
12.0677
11.8482
11.6578
11.4917
11.3459
11.2168
11.1014
10.9974
10.903
10.8171
10.7394
10.6699
16.023
15.0016
14.3669
13.8245
13.3602
12.9624
12.6212
12.3283
12.0766
11.8599
11.6729
11.5107
11.3693
11.245
11.1347
11.0357
10.9459
10.8641
10.7897
10.7244
16.0247
15.0024
14.368
13.826
13.3623
12.9653
12.6252
12.3337
12.084
11.8697
11.6855
11.5269
11.3897
11.2702
11.1653
11.0722
10.9887
10.9132
10.8459
10.7886
16.0261
15.003
14.3689
13.8272
13.3639
12.9676
12.6284
12.3381
12.0898
11.8776
11.696
11.5405
11.4071
11.2921
11.1926
11.1059
11.0298
10.9629
10.9059
10.8809
15.8724
14.8405
14.1999
13.6473
13.1695
12.7556
12.3966
12.0846
11.8131
11.5764
11.37
11.1897
11.032
10.8941
10.7733
10.6674
10.5745
10.4931
10.4215
10.3583
15.8847
14.854
14.2122
13.6582
13.1793
12.7644
12.4044
12.0916
11.8194
11.5822
11.3751
11.1944
11.0363
10.898
10.7769
10.6708
10.5777
10.496
10.4244
10.361
15.8936
14.8715
14.2282
13.6729
13.1926
12.7765
12.4153
12.1014
11.8282
11.5901
11.3824
11.201
11.0423
10.9035
10.782
10.6755
10.5821
10.5002
10.4282
10.3646
15.9055
14.8907
14.2463
13.69
13.2087
12.7914
12.4291
12.1141
11.8398
11.6007
11.3921
11.2098
11.0505
10.911
10.7889
10.6818
10.588
10.5056
10.4333
10.3694
15.9192
14.9098
14.2649
13.7081
13.2262
12.8083
12.4452
12.1292
11.8539
11.6138
11.4041
11.2209
11.0607
10.9204
10.7976
10.6899
10.5955
10.5125
10.4398
10.3754
15.9337
14.9274
14.2825
13.7259
13.2442
12.8261
12.4627
12.1462
11.8702
11.6292
11.4186
11.2344
11.0733
10.9321
10.8084
10.6999
10.6048
10.5212
10.4479
10.383
15.9481
14.9429
14.2986
13.7427
13.2616
12.8442
12.4811
12.1646
11.8882
11.6468
11.4355
11.2505
11.0884
10.9463
10.8217
10.7123
10.6163
10.532
10.4579
10.3924
15.9615
14.9561
14.3127
13.7581
13.2782
12.8619
12.4997
12.1838
11.9078
11.6663
11.4546
11.269
11.1062
10.9633
10.8378
10.7274
10.6305
10.5454
10.4705
10.4042
15.9737
14.9669
14.3248
13.7716
13.2936
12.8789
12.5182
12.2036
11.9284
11.6874
11.4759
11.2901
11.1267
10.9831
10.8568
10.7456
10.6478
10.5617
10.4859
10.4189
15.9841
14.9756
14.3348
13.7834
13.3073
12.8948
12.5362
12.2233
11.9497
11.7098
11.4989
11.3134
11.1499
11.0059
10.8789
10.767
10.6683
10.5814
10.5047
10.4368
15.993
14.9825
14.3429
13.7932
13.3193
12.9091
12.5529
12.2424
11.971
11.7328
11.5234
11.3387
11.1756
11.0315
10.9042
10.7917
10.6923
10.6045
10.527
10.4583
16.0003
14.9877
14.3494
13.8014
13.3294
12.9217
12.5681
12.2604
11.9917
11.7559
11.5485
11.3653
11.2033
11.0597
10.9325
10.8197
10.7197
10.6312
10.5529
10.4834
16.0063
14.9919
14.3544
13.8079
13.3378
12.9323
12.5814
12.2767
12.011
11.7782
11.5735
11.3927
11.2325
11.0901
10.9635
10.8508
10.7506
10.6616
10.5826
10.5124
16.0112
14.9949
14.3584
13.813
13.3446
12.9412
12.5928
12.2909
12.0284
11.799
11.5976
11.4199
11.2623
11.122
10.9967
10.8847
10.7847
10.6954
10.616
10.5453
16.0151
14.9973
14.3614
13.817
13.35
12.9484
12.6023
12.3031
12.0437
11.8178
11.62
11.446
11.2918
11.1544
11.0314
10.9209
10.8217
10.7327
10.6531
10.5821
16.0183
14.9991
14.3637
13.8201
13.3543
12.9542
12.61
12.3133
12.0568
11.8342
11.6402
11.4701
11.3199
11.1863
11.0667
10.9588
10.8613
10.7732
10.6941
10.6232
16.0209
15.0005
14.3655
13.8226
13.3576
12.9588
12.6162
12.3216
12.0677
11.8482
11.6578
11.4917
11.346
11.2168
11.1014
10.9974
10.903
10.8171
10.7394
10.6699
16.0231
15.0016
14.3669
13.8245
13.3602
12.9624
12.6212
12.3283
12.0766
11.8599
11.6729
11.5107
11.3693
11.245
11.1347
11.0357
10.9459
10.8641
10.7898
10.7245
16.0248
15.0024
14.368
13.826
13.3623
12.9653
12.6252
12.3337
12.084
11.8697
11.6855
11.5269
11.3897
11.2702
11.1653
11.0722
10.9887
10.9133
10.846
10.7886
16.0262
15.003
14.3689
13.8272
13.3639
12.9676
12.6284
12.3381
12.0898
11.8776
11.696
11.5405
11.4071
11.2921
11.1926
11.1059
11.0298
10.9629
10.9059
10.881
15.8724
14.8405
14.1999
13.6473
13.1695
12.7556
12.3966
12.0846
11.8131
11.5764
11.37
11.1897
11.032
10.8941
10.7733
10.6674
10.5745
10.4931
10.4215
10.3583
15.8847
14.854
14.2122
13.6582
13.1793
12.7644
12.4044
12.0916
11.8194
11.5822
11.3751
11.1944
11.0363
10.898
10.7769
10.6708
10.5777
10.496
10.4244
10.361
15.8936
14.8715
14.2282
13.6729
13.1926
12.7765
12.4153
12.1014
11.8282
11.5901
11.3824
11.201
11.0423
10.9035
10.782
10.6755
10.5821
10.5001
10.4282
10.3646
15.9055
14.8907
14.2463
13.69
13.2087
12.7914
12.4291
12.1141
11.8398
11.6007
11.3921
11.2098
11.0504
10.911
10.7889
10.6818
10.5879
10.5056
10.4333
10.3694
15.9192
14.9098
14.2649
13.7081
13.2262
12.8083
12.4452
12.1292
11.8539
11.6138
11.4041
11.2209
11.0607
10.9204
10.7976
10.6899
10.5955
10.5125
10.4398
10.3754
15.9337
14.9274
14.2825
13.7259
13.2442
12.8261
12.4627
12.1462
11.8702
11.6292
11.4186
11.2344
11.0733
10.9321
10.8084
10.6999
10.6048
10.5212
10.4479
10.383
15.9481
14.9429
14.2986
13.7427
13.2616
12.8442
12.4811
12.1646
11.8882
11.6468
11.4355
11.2505
11.0884
10.9463
10.8217
10.7123
10.6163
10.532
10.4579
10.3924
15.9615
14.9561
14.3127
13.7581
13.2782
12.8619
12.4997
12.1838
11.9078
11.6663
11.4546
11.269
11.1062
10.9633
10.8378
10.7274
10.6305
10.5454
10.4705
10.4042
15.9737
14.9669
14.3248
13.7716
13.2936
12.8789
12.5182
12.2036
11.9284
11.6874
11.4759
11.2901
11.1267
10.9831
10.8568
10.7456
10.6478
10.5617
10.4859
10.4189
15.9841
14.9756
14.3348
13.7834
13.3073
12.8948
12.5362
12.2233
11.9497
11.7098
11.4989
11.3134
11.1499
11.0058
10.8788
10.767
10.6683
10.5814
10.5047
10.4368
15.993
14.9825
14.3429
13.7932
13.3193
12.9091
12.5529
12.2424
11.971
11.7328
11.5234
11.3387
11.1756
11.0315
10.9042
10.7917
10.6923
10.6045
10.527
10.4583
16.0003
14.9877
14.3494
13.8014
13.3294
12.9217
12.5681
12.2604
11.9917
11.7559
11.5485
11.3653
11.2033
11.0597
10.9325
10.8197
10.7198
10.6312
10.5529
10.4834
16.0063
14.9918
14.3544
13.8079
13.3378
12.9323
12.5814
12.2767
12.011
11.7782
11.5735
11.3927
11.2325
11.0901
10.9635
10.8508
10.7506
10.6616
10.5826
10.5124
16.0112
14.9949
14.3584
13.813
13.3446
12.9412
12.5928
12.2909
12.0284
11.799
11.5976
11.4199
11.2623
11.122
10.9967
10.8847
10.7847
10.6954
10.616
10.5453
16.0151
14.9973
14.3614
13.817
13.35
12.9484
12.6023
12.3031
12.0437
11.8178
11.62
11.446
11.2918
11.1544
11.0314
10.921
10.8217
10.7327
10.6531
10.5821
16.0183
14.9991
14.3637
13.8201
13.3543
12.9542
12.61
12.3133
12.0568
11.8342
11.6402
11.4701
11.3199
11.1863
11.0667
10.9588
10.8613
10.7733
10.6941
10.6233
16.0209
15.0005
14.3655
13.8226
13.3576
12.9588
12.6162
12.3216
12.0677
11.8482
11.6579
11.4917
11.346
11.2168
11.1014
10.9974
10.903
10.8171
10.7394
10.67
16.0231
15.0015
14.3669
13.8245
13.3602
12.9624
12.6212
12.3283
12.0766
11.8599
11.6729
11.5107
11.3693
11.245
11.1347
11.0357
10.9459
10.8641
10.7898
10.7245
16.0248
15.0024
14.368
13.826
13.3623
12.9653
12.6252
12.3337
12.084
11.8697
11.6855
11.5269
11.3897
11.2702
11.1653
11.0722
10.9888
10.9133
10.846
10.7886
16.0262
15.003
14.3689
13.8272
13.3639
12.9676
12.6284
12.3381
12.0898
11.8776
11.696
11.5405
11.4071
11.2921
11.1926
11.1059
11.0298
10.9629
10.9059
10.881
15.8724
14.8405
14.1999
13.6473
13.1695
12.7556
12.3966
12.0846
11.8131
11.5764
11.37
11.1897
11.032
10.8941
10.7733
10.6674
10.5745
10.4931
10.4215
10.3583
15.8847
14.854
14.2122
13.6582
13.1793
12.7644
12.4044
12.0916
11.8194
11.5822
11.3751
11.1944
11.0363
10.898
10.7769
10.6708
10.5777
10.496
10.4244
10.361
15.8936
14.8715
14.2282
13.6729
13.1926
12.7765
12.4153
12.1014
11.8282
11.5901
11.3824
11.201
11.0423
10.9035
10.782
10.6755
10.5821
10.5001
10.4282
10.3646
15.9055
14.8907
14.2463
13.69
13.2087
12.7914
12.4291
12.1141
11.8398
11.6007
11.3921
11.2098
11.0504
10.911
10.7889
10.6818
10.5879
10.5056
10.4333
10.3694
15.9192
14.9098
14.2649
13.7081
13.2262
12.8083
12.4452
12.1292
11.8539
11.6138
11.4041
11.2209
11.0607
10.9204
10.7976
10.6899
10.5955
10.5125
10.4398
10.3754
15.9337
14.9274
14.2825
13.7259
13.2442
12.8261
12.4627
12.1462
11.8702
11.6292
11.4186
11.2344
11.0733
10.9321
10.8084
10.6999
10.6048
10.5212
10.4479
10.383
15.9481
14.9429
14.2986
13.7427
13.2616
12.8442
12.4811
12.1646
11.8882
11.6468
11.4355
11.2505
11.0884
10.9463
10.8217
10.7123
10.6163
10.532
10.4579
10.3924
15.9615
14.9561
14.3127
13.7581
13.2782
12.8619
12.4997
12.1838
11.9078
11.6663
11.4546
11.269
11.1062
10.9633
10.8378
10.7274
10.6305
10.5454
10.4705
10.4042
15.9737
14.9669
14.3248
13.7716
13.2936
12.8789
12.5182
12.2036
11.9284
11.6874
11.4759
11.2901
11.1267
10.9831
10.8568
10.7456
10.6478
10.5617
10.4859
10.4189
15.9841
14.9756
14.3348
13.7834
13.3073
12.8948
12.5362
12.2233
11.9497
11.7098
11.4989
11.3134
11.1499
11.0058
10.8789
10.767
10.6683
10.5813
10.5047
10.4368
15.993
14.9825
14.3429
13.7932
13.3193
12.9091
12.5529
12.2424
11.971
11.7328
11.5234
11.3387
11.1756
11.0315
10.9041
10.7917
10.6923
10.6045
10.527
10.4583
16.0003
14.9877
14.3494
13.8014
13.3294
12.9217
12.5681
12.2604
11.9917
11.7559
11.5485
11.3653
11.2033
11.0597
10.9325
10.8197
10.7197
10.6312
10.5529
10.4834
16.0063
14.9918
14.3544
13.8079
13.3378
12.9323
12.5814
12.2767
12.011
11.7782
11.5735
11.3928
11.2325
11.0901
10.9635
10.8508
10.7506
10.6616
10.5826
10.5124
16.0112
14.9949
14.3584
13.813
13.3446
12.9412
12.5928
12.2909
12.0284
11.799
11.5976
11.4199
11.2623
11.122
10.9967
10.8847
10.7847
10.6954
10.616
10.5453
16.0151
14.9973
14.3614
13.817
13.35
12.9484
12.6023
12.3031
12.0437
11.8178
11.62
11.446
11.2918
11.1544
11.0314
10.921
10.8217
10.7327
10.6531
10.5821
16.0183
14.9991
14.3637
13.8201
13.3543
12.9542
12.61
12.3133
12.0568
11.8342
11.6402
11.4701
11.3199
11.1863
11.0667
10.9589
10.8613
10.7733
10.6941
10.6233
16.0209
15.0005
14.3655
13.8226
13.3576
12.9588
12.6162
12.3216
12.0677
11.8482
11.6579
11.4917
11.346
11.2168
11.1014
10.9975
10.903
10.8171
10.7394
10.67
16.0231
15.0015
14.3669
13.8245
13.3602
12.9624
12.6212
12.3283
12.0766
11.8599
11.6729
11.5108
11.3693
11.245
11.1347
11.0357
10.9459
10.8641
10.7898
10.7245
16.0248
15.0023
14.368
13.826
13.3623
12.9653
12.6252
12.3337
12.084
11.8697
11.6855
11.5269
11.3897
11.2702
11.1653
11.0722
10.9888
10.9133
10.846
10.7886
16.0262
15.003
14.3688
13.8272
13.364
12.9676
12.6284
12.3381
12.0898
11.8776
11.696
11.5405
11.4071
11.2921
11.1926
11.1059
11.0298
10.9629
10.9059
10.881
15.8724
14.8405
14.1999
13.6473
13.1695
12.7556
12.3966
12.0846
11.8131
11.5764
11.37
11.1897
11.032
10.894
10.7733
10.6674
10.5745
10.4931
10.4215
10.3583
15.8847
14.854
14.2122
13.6582
13.1793
12.7644
12.4044
12.0916
11.8194
11.5822
11.3751
11.1944
11.0363
10.898
10.7769
10.6708
10.5777
10.496
10.4244
10.361
15.8936
14.8715
14.2282
13.6729
13.1926
12.7765
12.4153
12.1014
11.8282
11.5901
11.3824
11.2009
11.0423
10.9035
10.782
10.6755
10.5821
10.5001
10.4282
10.3646
15.9055
14.8907
14.2463
13.69
13.2087
12.7914
12.4291
12.1141
11.8398
11.6007
11.3921
11.2098
11.0504
10.911
10.7889
10.6818
10.5879
10.5056
10.4333
10.3694
15.9192
14.9098
14.2649
13.7081
13.2262
12.8083
12.4452
12.1292
11.8539
11.6138
11.4041
11.2209
11.0607
10.9204
10.7975
10.6899
10.5954
10.5125
10.4398
10.3754
15.9337
14.9274
14.2825
13.7259
13.2442
12.8261
12.4627
12.1462
11.8702
11.6292
11.4186
11.2344
11.0732
10.9321
10.8084
10.6999
10.6048
10.5212
10.4479
10.383
15.9481
14.9429
14.2986
13.7427
13.2616
12.8442
12.4811
12.1646
11.8882
11.6468
11.4355
11.2505
11.0884
10.9463
10.8217
10.7123
10.6163
10.532
10.4579
10.3924
15.9615
14.9561
14.3127
13.7581
13.2782
12.8619
12.4997
12.1838
11.9078
11.6663
11.4546
11.269
11.1062
10.9632
10.8378
10.7274
10.6305
10.5454
10.4705
10.4042
15.9737
14.9669
14.3248
13.7716
13.2936
12.8789
12.5182
12.2036
11.9284
11.6874
11.4759
11.29
11.1267
10.9831
10.8568
10.7456
10.6478
10.5617
10.4859
10.4189
15.9841
14.9756
14.3348
13.7834
13.3073
12.8948
12.5362
12.2233
11.9497
11.7098
11.4989
11.3134
11.1499
11.0058
10.8789
10.767
10.6683
10.5813
10.5047
10.4368
15.993
14.9825
14.3429
13.7932
13.3193
12.9091
12.5529
12.2424
11.971
11.7328
11.5234
11.3387
11.1756
11.0315
10.9041
10.7917
10.6923
10.6045
10.527
10.4583
16.0003
14.9877
14.3494
13.8014
13.3294
12.9217
12.5681
12.2604
11.9917
11.7559
11.5485
11.3654
11.2033
11.0597
10.9325
10.8197
10.7197
10.6312
10.5529
10.4834
16.0063
14.9918
14.3544
13.8079
13.3378
12.9323
12.5814
12.2767
12.011
11.7782
11.5736
11.3928
11.2325
11.0902
10.9635
10.8508
10.7506
10.6616
10.5826
10.5125
16.0111
14.9949
14.3584
13.813
13.3446
12.9412
12.5928
12.2909
12.0284
11.799
11.5976
11.4199
11.2623
11.122
10.9967
10.8848
10.7847
10.6955
10.616
10.5453
16.0151
14.9973
14.3614
13.817
13.35
12.9484
12.6023
12.3031
12.0437
11.8178
11.62
11.446
11.2918
11.1544
11.0314
10.921
10.8217
10.7327
10.6531
10.5822
16.0183
14.9991
14.3637
13.8201
13.3543
12.9542
12.61
12.3133
12.0568
11.8342
11.6402
11.4701
11.3199
11.1863
11.0667
10.9588
10.8614
10.7733
10.6941
10.6233
16.0209
15.0005
14.3655
13.8226
13.3576
12.9588
12.6163
12.3216
12.0677
11.8482
11.6579
11.4918
11.346
11.2168
11.1014
10.9975
10.9031
10.8172
10.7394
10.67
16.0231
15.0015
14.3669
13.8245
13.3602
12.9624
12.6212
12.3283
12.0766
11.86
11.6729
11.5108
11.3693
11.245
11.1347
11.0357
10.946
10.8641
10.7898
10.7246
16.0248
15.0023
14.368
13.826
13.3623
12.9653
12.6252
12.3337
12.084
11.8697
11.6855
11.5269
11.3897
11.2702
11.1653
11.0722
10.9888
10.9133
10.846
10.7887
16.0262
15.003
14.3688
13.8272
13.364
12.9676
12.6284
12.3381
12.0898
11.8776
11.696
11.5405
11.4071
11.2921
11.1926
11.1059
11.0298
10.9629
10.9059
10.881
15.8724
14.8405
14.1999
13.6473
13.1695
12.7556
12.3966
12.0846
11.8131
11.5764
11.37
11.1897
11.032
10.894
10.7733
10.6674
10.5745
10.4931
10.4215
10.3583
15.8847
14.854
14.2122
13.6582
13.1793
12.7644
12.4044
12.0916
11.8194
11.5821
11.3751
11.1944
11.0363
10.898
10.7769
10.6708
10.5777
10.496
10.4243
10.361
15.8936
14.8715
14.2282
13.6729
13.1926
12.7765
12.4153
12.1014
11.8282
11.5901
11.3824
11.2009
11.0423
10.9035
10.782
10.6755
10.5821
10.5001
10.4282
10.3646
15.9055
14.8907
14.2463
13.69
13.2087
12.7914
12.4291
12.1141
11.8398
11.6007
11.3921
11.2098
11.0504
10.911
10.7889
10.6818
10.5879
10.5056
10.4333
10.3694
15.9192
14.9098
14.2649
13.7081
13.2262
12.8083
12.4452
12.1292
11.8539
11.6138
11.4041
11.2209
11.0607
10.9204
10.7975
10.6898
10.5954
10.5125
10.4398
10.3754
15.9337
14.9274
14.2825
13.7259
13.2442
12.8261
12.4627
12.1462
11.8702
11.6292
11.4186
11.2344
11.0732
10.9321
10.8084
10.6999
10.6047
10.5212
10.4479
10.383
15.9481
14.9429
14.2986
13.7427
13.2616
12.8442
12.4811
12.1646
11.8882
11.6468
11.4355
11.2505
11.0884
10.9463
10.8217
10.7123
10.6163
10.532
10.4579
10.3924
15.9615
14.9561
14.3127
13.7581
13.2782
12.862
12.4997
12.1838
11.9078
11.6663
11.4546
11.269
11.1062
10.9632
10.8378
10.7274
10.6305
10.5454
10.4704
10.4042
15.9737
14.9669
14.3248
13.7716
13.2936
12.8789
12.5182
12.2036
11.9284
11.6874
11.4759
11.29
11.1267
10.9831
10.8568
10.7456
10.6478
10.5617
10.4859
10.4189
15.9841
14.9756
14.3348
13.7834
13.3073
12.8948
12.5362
12.2233
11.9497
11.7098
11.4989
11.3134
11.1499
11.0059
10.8789
10.767
10.6683
10.5814
10.5047
10.4369
15.993
14.9825
14.3429
13.7932
13.3193
12.9091
12.5529
12.2424
11.971
11.7328
11.5234
11.3387
11.1756
11.0315
10.9042
10.7917
10.6923
10.6045
10.527
10.4583
16.0003
14.9877
14.3493
13.8014
13.3294
12.9217
12.5681
12.2604
11.9917
11.7559
11.5485
11.3654
11.2034
11.0597
10.9325
10.8197
10.7197
10.6312
10.5529
10.4834
16.0063
14.9918
14.3544
13.8079
13.3378
12.9323
12.5814
12.2767
12.011
11.7782
11.5736
11.3928
11.2325
11.0902
10.9635
10.8508
10.7506
10.6616
10.5826
10.5125
16.0111
14.9949
14.3584
13.813
13.3446
12.9412
12.5928
12.2909
12.0284
11.799
11.5976
11.4199
11.2623
11.122
10.9967
10.8848
10.7847
10.6955
10.6161
10.5454
16.0151
14.9973
14.3614
13.817
13.35
12.9484
12.6023
12.3031
12.0437
11.8178
11.62
11.446
11.2918
11.1544
11.0314
10.921
10.8218
10.7327
10.6532
10.5822
16.0183
14.9991
14.3637
13.8201
13.3543
12.9542
12.61
12.3133
12.0568
11.8342
11.6402
11.4701
11.3199
11.1863
11.0667
10.9588
10.8614
10.7733
10.6942
10.6234
16.0209
15.0005
14.3655
13.8226
13.3576
12.9588
12.6163
12.3216
12.0677
11.8482
11.6579
11.4918
11.346
11.2168
11.1015
10.9975
10.9031
10.8172
10.7395
10.6701
16.0231
15.0015
14.3669
13.8245
13.3602
12.9624
12.6212
12.3283
12.0766
11.86
11.6729
11.5108
11.3693
11.2451
11.1347
11.0357
10.946
10.8642
10.7899
10.7247
16.0248
15.0023
14.368
13.826
13.3623
12.9653
12.6252
12.3337
12.084
11.8697
11.6855
11.5269
11.3897
11.2702
11.1654
11.0723
10.9888
10.9134
10.8462
10.7889
16.0262
15.003
14.3688
13.8272
13.364
12.9676
12.6284
12.3381
12.0898
11.8776
11.696
11.5405
11.4071
11.2921
11.1926
11.1059
11.0298
10.9629
10.906
10.8814
15.8724
14.8405
14.1999
13.6473
13.1695
12.7556
12.3966
12.0846
11.8131
11.5764
11.37
11.1897
11.032
10.894
10.7733
10.6674
10.5745
10.4931
10.4215
10.3583
15.8847
14.854
14.2122
13.6582
13.1793
12.7644
12.4044
12.0916
11.8194
11.5822
11.3751
11.1944
11.0363
10.898
10.7769
10.6708
10.5777
10.496
10.4244
10.361
15.8936
14.8715
14.2282
13.6729
13.1926
12.7765
12.4153
12.1014
11.8282
11.5901
11.3824
11.2009
11.0423
10.9035
10.782
10.6755
10.5821
10.5001
10.4282
10.3646
15.9055
14.8907
14.2463
13.69
13.2087
12.7914
12.4291
12.1141
11.8398
11.6007
11.3921
11.2098
11.0504
10.911
10.7889
10.6818
10.5879
10.5056
10.4333
10.3694
15.9192
14.9098
14.2649
13.7081
13.2262
12.8083
12.4452
12.1292
11.8539
11.6138
11.4041
11.2209
11.0607
10.9204
10.7975
10.6898
10.5954
10.5125
10.4398
10.3754
15.9337
14.9274
14.2825
13.7259
13.2442
12.8261
12.4627
12.1462
11.8702
11.6292
11.4186
11.2344
11.0732
10.9321
10.8084
10.6999
10.6047
10.5212
10.4479
10.383
15.9481
14.9429
14.2986
13.7427
13.2616
12.8442
12.4811
12.1646
11.8882
11.6468
11.4355
11.2505
11.0884
10.9463
10.8217
10.7123
10.6163
10.532
10.4579
10.3924
15.9615
14.9561
14.3127
13.7581
13.2782
12.862
12.4997
12.1838
11.9078
11.6663
11.4546
11.269
11.1062
10.9632
10.8378
10.7274
10.6305
10.5454
10.4704
10.4042
15.9737
14.9669
14.3248
13.7716
13.2936
12.8789
12.5182
12.2036
11.9284
11.6874
11.4759
11.29
11.1267
10.9831
10.8568
10.7456
10.6478
10.5617
10.4859
10.4189
15.9841
14.9756
14.3348
13.7834
13.3073
12.8948
12.5362
12.2233
11.9497
11.7098
11.4989
11.3134
11.1499
11.0059
10.8789
10.767
10.6683
10.5814
10.5047
10.4369
15.993
14.9824
14.3429
13.7932
13.3193
12.9091
12.5529
12.2424
11.971
11.7328
11.5234
11.3387
11.1756
11.0315
10.9042
10.7917
10.6923
10.6045
10.527
10.4583
16.0003
14.9877
14.3493
13.8014
13.3294
12.9217
12.5681
12.2604
11.9917
11.7559
11.5485
11.3654
11.2034
11.0597
10.9325
10.8197
10.7198
10.6312
10.553
10.4834
16.0063
14.9918
14.3544
13.8079
13.3378
12.9323
12.5814
12.2767
12.011
11.7782
11.5736
11.3928
11.2325
11.0902
10.9635
10.8508
10.7506
10.6616
10.5827
10.5125
16.0111
14.9949
14.3584
13.813
13.3446
12.9412
12.5928
12.2909
12.0284
11.799
11.5976
11.4199
11.2623
11.122
10.9967
10.8848
10.7847
10.6955
10.6161
10.5454
16.0151
14.9973
14.3614
13.817
13.35
12.9484
12.6023
12.3031
12.0437
11.8178
11.62
11.446
11.2918
11.1544
11.0314
10.921
10.8218
10.7328
10.6532
10.5823
16.0183
14.9991
14.3637
13.8201
13.3543
12.9542
12.61
12.3133
12.0568
11.8342
11.6402
11.4701
11.3199
11.1863
11.0667
10.9588
10.8614
10.7734
10.6942
10.6235
16.0209
15.0005
14.3655
13.8226
13.3576
12.9588
12.6163
12.3216
12.0677
11.8482
11.6579
11.4918
11.346
11.2168
11.1015
10.9975
10.9031
10.8173
10.7396
10.6703
16.023
15.0015
14.3669
13.8245
13.3602
12.9624
12.6212
12.3283
12.0766
11.86
11.6729
11.5108
11.3694
11.2451
11.1347
11.0358
10.946
10.8642
10.79
10.7249
16.0247
15.0023
14.368
13.826
13.3623
12.9653
12.6252
12.3337
12.0839
11.8697
11.6855
11.5269
11.3897
11.2702
11.1654
11.0723
10.9888
10.9134
10.8463
10.7892
16.0261
15.003
14.3689
13.8272
13.364
12.9676
12.6284
12.3381
12.0898
11.8776
11.696
11.5405
11.4071
11.2921
11.1927
11.1059
11.0298
10.963
10.9061
10.8818
15.8724
14.8405
14.1999
13.6473
13.1695
12.7556
12.3966
12.0846
11.8131
11.5764
11.37
11.1897
11.032
10.894
10.7733
10.6674
10.5745
10.4931
10.4215
10.3583
15.8847
14.854
14.2122
13.6582
13.1793
12.7644
12.4044
12.0916
11.8194
11.5822
11.3751
11.1944
11.0363
10.898
10.7769
10.6708
10.5777
10.496
10.4244
10.361
15.8936
14.8715
14.2282
13.6729
13.1926
12.7765
12.4153
12.1014
11.8282
11.5901
11.3824
11.2009
11.0423
10.9035
10.782
10.6755
10.5821
10.5001
10.4282
10.3646
15.9055
14.8907
14.2463
13.69
13.2087
12.7914
12.4291
12.1141
11.8398
11.6007
11.3921
11.2098
11.0504
10.911
10.7889
10.6818
10.5879
10.5056
10.4333
10.3694
15.9192
14.9098
14.2649
13.7081
13.2262
12.8083
12.4452
12.1292
11.8539
11.6138
11.4041
11.2209
11.0607
10.9204