/*--------------------------------*- C++ -*----------------------------------*\
| =========                 |                                                 |
| \\      /  F ield         | OpenFOAM: The Open Source CFD Toolbox           |
|  \\    /   O peration     | Version:  4.x                                   |
|   \\  /    A nd           | Web:      www.OpenFOAM.org                      |
|    \\/     M anipulation  |                                                 |
\*---------------------------------------------------------------------------*/
FoamFile
{
    version     2.0;
    format      ascii;
    class       volVectorField;
    location    "250";
    object      U;
}
// * * * * * * * * * * * * * * * * * * * * * * * * * * * * * * * * * * * * * //

dimensions      [0 1 -1 0 0 0 0];

internalField   nonuniform List<vector> 
112000
(
(0.998531 0.00571608 -1.09877e-05)
(0.997419 0.00440219 2.95647e-05)
(0.996618 0.00343615 6.87215e-06)
(0.996084 0.00286789 -2.46788e-05)
(0.995721 0.00253551 -7.18203e-05)
(0.995482 0.00232739 -0.000157214)
(0.995323 0.00218943 -0.000284688)
(0.995195 0.00207489 -0.0004153)
(0.995016 0.00193702 -0.000496276)
(0.994761 0.00168602 -0.000508201)
(0.994664 0.00132342 -0.000489336)
(0.994734 0.000913983 -0.000449589)
(0.995039 0.000524865 -0.000334965)
(0.995537 0.000218231 -0.000155221)
(0.99569 -5.92631e-05 2.57373e-05)
(0.995851 -0.000345117 0.000184225)
(0.996356 -0.000583127 0.000364057)
(0.996839 -0.00075444 0.000504204)
(0.997132 -0.000894018 0.000605093)
(0.997302 -0.000971025 0.000667122)
(1.00006 -0.000701522 -1.80427e-05)
(1.00129 -0.00300901 -6.80876e-05)
(1.00284 -0.00445624 -4.56401e-05)
(1.00474 -0.00562227 -4.31309e-06)
(1.00671 -0.00651816 2.4728e-05)
(1.00851 -0.00718266 4.49354e-05)
(1.00997 -0.00764817 5.9454e-05)
(1.01105 -0.00793646 6.38349e-05)
(1.0118 -0.00807628 4.05904e-05)
(1.01232 -0.00812564 2.22529e-05)
(1.01272 -0.00816036 2.87458e-05)
(1.01317 -0.00822071 3.5993e-05)
(1.01373 -0.00829203 4.70015e-05)
(1.0145 -0.0084136 2.96377e-05)
(1.01548 -0.00858872 -4.13037e-05)
(1.01663 -0.00878068 -0.000153731)
(1.01782 -0.00897756 -0.000335387)
(1.01895 -0.0091305 -0.000413181)
(1.02014 -0.00920245 -0.000361065)
(1.02155 -0.00921374 -0.00024319)
(1.00007 -0.00141842 -3.37015e-05)
(1.00156 -0.0058497 -0.000143974)
(1.00343 -0.00844477 -1.50488e-05)
(1.00571 -0.0104024 0.000112407)
(1.00813 -0.0118469 0.000160093)
(1.01044 -0.0128774 0.000172251)
(1.0125 -0.0136303 0.00020327)
(1.01421 -0.0142002 0.000219266)
(1.01551 -0.0146517 0.000160247)
(1.01638 -0.0150114 4.28557e-05)
(1.01689 -0.0152419 -7.76248e-05)
(1.01736 -0.0153794 -0.000169253)
(1.01781 -0.0154916 -0.00025217)
(1.01846 -0.0155808 -0.000300594)
(1.01915 -0.0156579 -0.000285383)
(1.02008 -0.015746 -0.000197854)
(1.02138 -0.0158511 -9.5758e-05)
(1.02302 -0.0159728 8.05086e-06)
(1.02496 -0.0160966 7.09111e-05)
(1.02688 -0.0161779 8.60896e-05)
(1.0001 -0.00263681 5.54796e-06)
(1.00208 -0.0104428 -5.77036e-05)
(1.00454 -0.0146142 -8.76551e-05)
(1.00747 -0.0175488 -7.94035e-05)
(1.01055 -0.0196082 -4.78905e-05)
(1.01355 -0.0210178 -1.59445e-05)
(1.01628 -0.0219395 4.82297e-06)
(1.01864 -0.0224783 8.3009e-06)
(1.02061 -0.022721 -5.35999e-06)
(1.02222 -0.0227486 -3.36939e-05)
(1.02352 -0.0226279 -5.15559e-05)
(1.02455 -0.0224121 -1.93799e-05)
(1.02536 -0.0221596 6.83684e-05)
(1.026 -0.0219239 0.000160611)
(1.02668 -0.0217368 0.000210281)
(1.02751 -0.02159 0.000193846)
(1.02852 -0.0214812 0.000107812)
(1.02985 -0.0214021 -2.61288e-05)
(1.03193 -0.0213311 -0.000190117)
(1.03536 -0.0212241 -0.000356352)
(1.00012 -0.00362367 0.000107182)
(1.00295 -0.0144908 0.00032066)
(1.00641 -0.02056 1.07611e-05)
(1.01031 -0.0248533 -0.000449951)
(1.01424 -0.0277904 -0.000700639)
(1.01794 -0.0297952 -0.000601418)
(1.02148 -0.0311434 -0.000188151)
(1.02474 -0.0320022 0.000220205)
(1.02772 -0.0324404 0.000324458)
(1.03037 -0.0325123 0.000223163)
(1.03262 -0.0322972 0.000111489)
(1.03446 -0.0318843 4.7438e-05)
(1.03593 -0.0313536 1.46614e-05)
(1.03708 -0.0307645 -9.61625e-06)
(1.03802 -0.0301631 -3.24468e-05)
(1.03893 -0.0295916 -5.22026e-05)
(1.04003 -0.0290701 -6.76528e-05)
(1.04166 -0.0285897 -7.96284e-05)
(1.04429 -0.0281347 -8.98132e-05)
(1.04845 -0.0276907 -0.000101323)
(1.00015 -0.00455021 -8.43366e-06)
(1.00344 -0.0183043 -4.03713e-05)
(1.00757 -0.0263058 3.39639e-05)
(1.01225 -0.0323827 0.000111589)
(1.0171 -0.0369218 0.000110867)
(1.02186 -0.0401311 2.80841e-05)
(1.02619 -0.0423013 -9.13035e-05)
(1.03034 -0.0436068 -0.000118028)
(1.03436 -0.0442822 -8.54139e-05)
(1.03818 -0.0445515 -8.47609e-05)
(1.04175 -0.0444224 -0.00012747)
(1.04494 -0.0439175 -0.000173583)
(1.04763 -0.0431334 -0.000203991)
(1.04983 -0.0421757 -0.000223178)
(1.05168 -0.0411297 -0.000238327)
(1.05333 -0.0400581 -0.000251091)
(1.05504 -0.0390046 -0.000261167)
(1.05719 -0.0379974 -0.000269807)
(1.0603 -0.0370511 -0.000278183)
(1.06489 -0.036164 -0.000286525)
(1.00014 -0.0050132 8.12763e-06)
(1.00345 -0.0205503 2.33857e-05)
(1.0076 -0.030243 1.83813e-05)
(1.01243 -0.0383133 -3.57537e-05)
(1.0177 -0.0450897 -0.000151285)
(1.02314 -0.0504387 -0.00028708)
(1.02851 -0.0544249 -0.000233079)
(1.03389 -0.0572606 -9.07078e-05)
(1.03914 -0.0591026 6.06541e-05)
(1.04442 -0.0599755 0.0001843)
(1.04968 -0.0600729 0.000197165)
(1.05458 -0.0596053 9.44671e-05)
(1.05893 -0.0587054 -4.09808e-05)
(1.06272 -0.0574734 -0.000150327)
(1.06597 -0.0560178 -0.000221479)
(1.06886 -0.0544433 -0.0002645)
(1.07166 -0.0528266 -0.000293108)
(1.07477 -0.0512211 -0.000315528)
(1.0787 -0.0496664 -0.00033489)
(1.08396 -0.048182 -0.000352655)
(1.00011 -0.00526478 8.00515e-07)
(1.00283 -0.0220681 -6.13888e-06)
(1.00625 -0.0332035 -8.94754e-06)
(1.01022 -0.0431599 -4.18861e-05)
(1.01509 -0.0522657 -9.8093e-05)
(1.02079 -0.0604659 -0.00014615)
(1.02733 -0.067246 -0.000175721)
(1.03427 -0.0722309 -0.00014066)
(1.04116 -0.0755047 -5.41865e-05)
(1.04813 -0.0773723 5.0603e-05)
(1.05511 -0.0782475 0.000105849)
(1.06187 -0.0783483 4.44869e-05)
(1.06827 -0.0777862 -8.53412e-05)
(1.0742 -0.0766509 -0.000218366)
(1.07952 -0.0750566 -0.000321693)
(1.08434 -0.0731259 -0.000392314)
(1.08888 -0.0709926 -0.00044137)
(1.09349 -0.0687772 -0.00047856)
(1.09864 -0.0665724 -0.000509064)
(1.10487 -0.0644303 -0.000534543)
(1.00007 -0.00536322 -3.36974e-06)
(1.00178 -0.0228525 -1.83102e-05)
(1.00407 -0.0348104 -8.84044e-06)
(1.00657 -0.0462221 -4.87278e-06)
(1.0103 -0.0570422 -4.7133e-05)
(1.01515 -0.0677173 -3.7774e-05)
(1.02186 -0.0774092 -6.29902e-05)
(1.02981 -0.0858488 -7.71248e-05)
(1.03866 -0.0924313 -0.000128441)
(1.04775 -0.0972217 -0.000181919)
(1.05698 -0.10029 -0.000229584)
(1.06598 -0.10188 -0.000266555)
(1.07459 -0.102259 -0.000331047)
(1.08297 -0.101646 -0.000418069)
(1.09098 -0.100223 -0.000498754)
(1.09851 -0.098155 -0.000562411)
(1.10556 -0.0956486 -0.000609617)
(1.11235 -0.0928949 -0.000644065)
(1.11935 -0.0900396 -0.000670531)
(1.12704 -0.0871833 -0.000693078)
(1.00002 -0.00532503 -1.71979e-05)
(1.00035 -0.0229403 -1.66694e-05)
(1.0013 -0.0351324 -1.34655e-05)
(1.00219 -0.04744 9.47902e-06)
(1.00391 -0.0597727 -3.94959e-05)
(1.00737 -0.0723609 -3.45289e-05)
(1.01277 -0.0850712 -7.20823e-05)
(1.0206 -0.0972805 -0.000138394)
(1.03014 -0.108506 -0.000215856)
(1.04103 -0.117912 -0.000316916)
(1.05257 -0.124959 -0.0004194)
(1.06429 -0.129589 -0.000498581)
(1.07618 -0.131997 -0.000590738)
(1.08794 -0.132633 -0.000663432)
(1.09942 -0.131851 -0.00069604)
(1.11036 -0.129989 -0.000706165)
(1.1206 -0.127347 -0.000713377)
(1.13027 -0.124182 -0.000728747)
(1.13977 -0.12072 -0.000751011)
(1.14948 -0.117157 -0.000773509)
(0.999967 -0.00514915 -1.49804e-05)
(0.999005 -0.022189 1.83485e-05)
(0.998363 -0.0346346 -6.66755e-05)
(0.99755 -0.0471163 -1.31818e-05)
(0.996943 -0.0606142 -1.54622e-05)
(0.998331 -0.0747574 -0.000101108)
(1.00147 -0.0900531 -0.000128588)
(1.00746 -0.105855 -0.000207274)
(1.01606 -0.121615 -0.000260069)
(1.02741 -0.136188 -0.000359943)
(1.04089 -0.14877 -0.00047793)
(1.05598 -0.158709 -0.000604708)
(1.0719 -0.165776 -0.000698313)
(1.08814 -0.16995 -0.000719054)
(1.10398 -0.171646 -0.000680033)
(1.11905 -0.171338 -0.00062474)
(1.13347 -0.169434 -0.000594704)
(1.14718 -0.1663 -0.000586391)
(1.16013 -0.162354 -0.000585556)
(1.1724 -0.158013 -0.000584824)
(0.999769 -0.00482134 5.37859e-05)
(0.998064 -0.020987 7.25974e-05)
(0.995713 -0.0332179 -0.000106873)
(0.992791 -0.0457763 -9.23277e-05)
(0.990018 -0.059466 -3.914e-05)
(0.98844 -0.0750589 -0.000128476)
(0.988872 -0.0921391 -0.000167105)
(0.991834 -0.111107 -0.000220048)
(0.998273 -0.130832 -0.000256618)
(1.00842 -0.150716 -0.000328346)
(1.02218 -0.169426 -0.000400915)
(1.039 -0.185885 -0.000473981)
(1.05808 -0.199307 -0.000497647)
(1.07857 -0.209269 -0.000488646)
(1.09958 -0.215735 -0.000458224)
(1.12041 -0.218941 -0.000424712)
(1.14058 -0.219479 -0.000395345)
(1.15968 -0.218005 -0.000364387)
(1.17744 -0.215071 -0.000328861)
(1.19382 -0.210957 -0.000284214)
(0.999422 -0.00453998 0.000120672)
(0.996879 -0.0201155 8.90285e-05)
(0.993126 -0.0313835 -6.21171e-05)
(0.988061 -0.0435263 -0.000108589)
(0.9829 -0.057024 -0.000147794)
(0.978513 -0.0732603 -0.000172605)
(0.975592 -0.0919228 -0.000188133)
(0.975236 -0.112989 -0.000218257)
(0.978318 -0.136282 -0.000283677)
(0.98571 -0.161136 -0.000341352)
(0.997676 -0.186415 -0.000381039)
(1.01431 -0.210621 -0.0003758)
(1.03506 -0.232268 -0.000366247)
(1.05889 -0.250389 -0.000330963)
(1.0847 -0.264387 -0.000267714)
(1.11138 -0.274094 -0.000184353)
(1.13798 -0.279658 -8.33438e-05)
(1.16382 -0.281567 2.6674e-05)
(1.18846 -0.280481 0.000140778)
(1.21145 -0.277046 0.000259174)
(0.999448 -0.00425805 6.15721e-05)
(0.99654 -0.0194416 6.75706e-06)
(0.991189 -0.0298348 -3.55153e-05)
(0.98436 -0.040823 -0.000295346)
(0.976706 -0.0537946 -0.00019369)
(0.969184 -0.0696926 -0.000286458)
(0.962688 -0.0890518 -0.000288697)
(0.958385 -0.112044 -0.000354908)
(0.957314 -0.138107 -0.000368745)
(0.960636 -0.166993 -0.00034914)
(0.968848 -0.198216 -0.000390527)
(0.982964 -0.230352 -0.000351748)
(1.00295 -0.261771 -0.000296704)
(1.02825 -0.290427 -0.000201801)
(1.05774 -0.314795 -6.53448e-05)
(1.09016 -0.333905 0.000110271)
(1.12416 -0.347355 0.000314798)
(1.1585 -0.355281 0.000534657)
(1.19225 -0.358226 0.000764792)
(1.2243 -0.356916 0.0010021)
(0.999617 -0.00406187 2.99109e-05)
(0.996167 -0.0182128 -2.45932e-05)
(0.99026 -0.0280532 -5.92865e-05)
(0.982146 -0.0384253 -0.000206124)
(0.972641 -0.0506994 -0.000222272)
(0.962785 -0.0660062 -0.000176513)
(0.953188 -0.0851119 -0.000286065)
(0.944843 -0.108548 -0.000350311)
(0.938456 -0.13645 -0.000418381)
(0.93571 -0.168637 -0.000485336)
(0.938087 -0.204619 -0.000431545)
(0.946649 -0.24375 -0.000391008)
(0.96269 -0.284552 -0.000289929)
(0.986505 -0.325139 -0.000125136)
(1.01743 -0.362902 0.000102013)
(1.05431 -0.395449 0.000383118)
(1.0956 -0.42116 0.000712486)
(1.13969 -0.439282 0.00108284)
(1.18501 -0.449818 0.00148169)
(1.22949 -0.453156 0.00189785)
(0.999748 -0.0038188 -6.36336e-06)
(0.995278 -0.0169075 1.09768e-05)
(0.98852 -0.0257899 -2.45118e-05)
(0.979646 -0.035221 -1.46474e-05)
(0.968909 -0.0468132 -0.000102816)
(0.957159 -0.0614025 -0.000104103)
(0.945211 -0.0800443 -0.000168285)
(0.933476 -0.103256 -0.000268282)
(0.922911 -0.131821 -0.000306396)
(0.915101 -0.165675 -0.000368811)
(0.91077 -0.205489 -0.000393552)
(0.911614 -0.250483 -0.000374425)
(0.9195 -0.299739 -0.000264375)
(0.936414 -0.351753 -7.22971e-05)
(0.963802 -0.404241 0.000207417)
(1.00171 -0.454029 0.000573267)
(1.04872 -0.497677 0.00102587)
(1.10281 -0.532478 0.00156078)
(1.16185 -0.556722 0.00216294)
(1.22333 -0.569246 0.00280577)
(0.999749 -0.00355434 -4.82591e-06)
(0.994769 -0.0157459 -6.64564e-06)
(0.987126 -0.0237082 -5.58685e-05)
(0.977129 -0.0320967 -7.71086e-05)
(0.964993 -0.0426796 -0.000131048)
(0.951155 -0.056429 -0.000146446)
(0.936287 -0.0741791 -0.000228016)
(0.920839 -0.0968273 -0.000288902)
(0.905918 -0.125266 -0.000334456)
(0.892651 -0.159925 -0.00037768)
(0.882415 -0.20128 -0.00037753)
(0.876638 -0.249592 -0.000340749)
(0.876872 -0.304824 -0.000224647)
(0.884747 -0.366673 -2.72568e-05)
(0.902613 -0.433936 0.000278252)
(0.93354 -0.503937 0.000699879)
(0.979763 -0.571965 0.00123586)
(1.04089 -0.632359 0.00189407)
(1.11491 -0.680684 0.00268172)
(1.20072 -0.711518 0.00356856)
(0.999728 -0.00338849 -3.11662e-06)
(0.994512 -0.0146519 -6.80062e-06)
(0.986466 -0.021874 -4.1259e-05)
(0.975623 -0.0295521 -6.81551e-05)
(0.962492 -0.0393174 -0.000107662)
(0.947089 -0.0519615 -0.000150295)
(0.930003 -0.0687107 -0.000225973)
(0.911517 -0.0905173 -0.000295441)
(0.892588 -0.118284 -0.000358518)
(0.874005 -0.152877 -0.000408259)
(0.856936 -0.194939 -0.000418587)
(0.842695 -0.244984 -0.000382971)
(0.832987 -0.303472 -0.000268643)
(0.829917 -0.370842 -6.64253e-05)
(0.835923 -0.447788 0.000240756)
(0.854097 -0.534867 0.000684355)
(0.889071 -0.631033 0.00128628)
(0.946258 -0.730372 0.00204064)
(1.0301 -0.822271 0.00293592)
(1.14625 -0.895133 0.00400363)
(0.999696 -0.0032363 -6.66378e-06)
(0.994073 -0.0136831 -8.01844e-06)
(0.985525 -0.0202539 -4.63467e-05)
(0.974114 -0.0272629 -8.11722e-05)
(0.959945 -0.0361321 -0.00012236)
(0.943184 -0.0478419 -0.000171771)
(0.924205 -0.0635026 -0.000243692)
(0.903251 -0.0840952 -0.000316191)
(0.881005 -0.110802 -0.000379136)
(0.858161 -0.144443 -0.000429796)
(0.835595 -0.185936 -0.000441103)
(0.814264 -0.236094 -0.000403962)
(0.795206 -0.295803 -0.000298683)
(0.779624 -0.366205 -0.000111921)
(0.769317 -0.4488 0.000171999)
(0.767352 -0.545815 0.000570981)
(0.779006 -0.661069 0.00112021)
(0.812957 -0.800388 0.0018767)
(0.881372 -0.963983 0.00283999)
(1.01445 -1.13075 0.00411719)
(0.999707 -0.00307078 -5.21817e-06)
(0.993825 -0.0128591 -1.36244e-05)
(0.984976 -0.0188362 -4.57371e-05)
(0.973157 -0.0251438 -7.52602e-05)
(0.958256 -0.0331676 -0.000115711)
(0.940411 -0.0439158 -0.000174994)
(0.919882 -0.0583982 -0.000248598)
(0.89683 -0.0777704 -0.00032207)
(0.871746 -0.10315 -0.000392489)
(0.845114 -0.135572 -0.000446276)
(0.817536 -0.176007 -0.000466375)
(0.789666 -0.225366 -0.000439511)
(0.762162 -0.284587 -0.000349069)
(0.735644 -0.354778 -0.000180132)
(0.710627 -0.437616 7.618e-05)
(0.687508 -0.536283 0.000437727)
(0.667023 -0.657525 0.000916998)
(0.64983 -0.814372 0.00149548)
(0.645202 -1.03657 0.00220167)
(0.61838 -1.29818 0.00352678)
(0.998464 0.00610544 -2.59108e-06)
(0.997116 0.00454914 -2.69898e-05)
(0.99616 0.00356621 -3.11424e-05)
(0.995516 0.00299683 -3.49018e-05)
(0.995075 0.00268011 -2.54067e-05)
(0.994761 0.0024865 2.21426e-06)
(0.994524 0.00234778 5.51482e-05)
(0.994351 0.00226148 0.000128439)
(0.994162 0.00212941 0.000197736)
(0.99395 0.00188819 0.000250075)
(0.993818 0.00151102 0.000261959)
(0.993944 0.00106446 0.0002072)
(0.9943 0.000667682 0.000136353)
(0.994628 0.000343392 1.89816e-05)
(0.994792 5.17484e-05 -0.000105538)
(0.995081 -0.000208696 -0.000136191)
(0.995387 -0.000427041 -0.00011575)
(0.995604 -0.000620557 -0.000110978)
(0.995909 -0.000792112 -0.000113003)
(0.996206 -0.000895081 -0.000124047)
(1.00002 -0.000663665 -7.93405e-06)
(1.00132 -0.00314458 -8.95265e-06)
(1.00288 -0.00457483 1.78635e-05)
(1.00478 -0.00570755 3.52838e-05)
(1.00677 -0.00654311 9.89377e-06)
(1.00859 -0.0071245 -1.42397e-05)
(1.01005 -0.00749782 -2.75e-05)
(1.01108 -0.00776009 -4.24135e-06)
(1.01178 -0.00798553 5.10886e-05)
(1.0123 -0.00817346 0.000156996)
(1.01271 -0.00828853 0.000299381)
(1.0131 -0.00835381 0.000437436)
(1.01355 -0.00844328 0.000520506)
(1.01416 -0.00859895 0.000513161)
(1.01488 -0.00880114 0.000419483)
(1.01564 -0.00902163 0.000228422)
(1.01659 -0.00923079 -4.83599e-05)
(1.01801 -0.00939255 -0.000334788)
(1.01983 -0.00950816 -0.000568629)
(1.0219 -0.00956711 -0.000689583)
(1.00005 -0.00136747 9.44375e-07)
(1.00165 -0.00596671 1.37533e-05)
(1.00356 -0.00856317 3.41423e-05)
(1.00585 -0.0104966 2.7789e-05)
(1.00824 -0.0119621 -4.65235e-06)
(1.01054 -0.0131061 -5.79535e-05)
(1.01254 -0.013988 -0.000120612)
(1.01404 -0.0146167 -0.000188701)
(1.01508 -0.0149886 -0.00024595)
(1.01589 -0.0151977 -0.000250921)
(1.01658 -0.0153454 -0.000169352)
(1.01721 -0.0154832 -3.14662e-05)
(1.01778 -0.0156035 8.53238e-05)
(1.0185 -0.0156841 0.000144725)
(1.01928 -0.0157392 0.000185902)
(1.02012 -0.0157648 0.00024754)
(1.02113 -0.0157501 0.000272154)
(1.02238 -0.0157019 0.000234165)
(1.02399 -0.0156448 0.000112452)
(1.02633 -0.0156069 -1.82233e-05)
(1.00007 -0.00241509 3.28415e-05)
(1.00208 -0.0103413 6.15119e-05)
(1.00459 -0.0146938 -4.80404e-05)
(1.00756 -0.0178654 -0.000157229)
(1.01062 -0.0199802 -0.000174865)
(1.01359 -0.0212666 -0.000128801)
(1.0163 -0.0220289 -8.1844e-05)
(1.01863 -0.0224789 -6.00686e-05)
(1.02057 -0.0227131 -6.22995e-05)
(1.02213 -0.0227523 -7.79725e-05)
(1.02338 -0.0226207 -0.000100798)
(1.02439 -0.0223662 -0.000126614)
(1.02529 -0.022069 -0.000159086)
(1.0261 -0.0218112 -0.000201576)
(1.02694 -0.0216308 -0.000239677)
(1.02788 -0.0215362 -0.000263248)
(1.02895 -0.0215124 -0.000259073)
(1.03036 -0.0215322 -0.000202283)
(1.03233 -0.0215427 -8.98509e-05)
(1.03541 -0.0214829 2.15542e-07)
(1.0001 -0.00352456 9.9524e-05)
(1.00276 -0.0147807 0.00027728)
(1.00603 -0.0207162 2.76029e-05)
(1.00996 -0.0248288 -0.000358687)
(1.01419 -0.0277221 -0.000658658)
(1.0183 -0.0297718 -0.000618304)
(1.02202 -0.031156 -0.000283784)
(1.02503 -0.0320124 0.00011014)
(1.02757 -0.0324305 0.000315893)
(1.03005 -0.0324856 0.000272133)
(1.03235 -0.032264 0.000138545)
(1.03428 -0.0318496 2.90219e-05)
(1.0358 -0.0313196 -3.78966e-05)
(1.03698 -0.0307368 -7.69729e-05)
(1.03794 -0.0301508 -0.000100161)
(1.03885 -0.0295964 -0.000114503)
(1.03996 -0.0290868 -0.000127035)
(1.04159 -0.0286141 -0.000140798)
(1.04423 -0.028165 -0.000157235)
(1.0484 -0.027725 -0.000173924)
(1.00012 -0.00429881 1.13462e-05)
(1.00351 -0.0183422 2.19727e-05)
(1.00771 -0.0262646 -5.56903e-06)
(1.01239 -0.0323465 -4.02749e-05)
(1.01719 -0.0369691 -3.02642e-05)
(1.02187 -0.0403244 -6.33859e-05)
(1.02622 -0.0426197 -0.000141869)
(1.03047 -0.0439463 -0.000150525)
(1.03451 -0.0445052 -0.000136532)
(1.03825 -0.0446213 -0.000131267)
(1.04176 -0.0444109 -0.000140626)
(1.04495 -0.0438891 -0.000159644)
(1.04765 -0.0431155 -0.000182886)
(1.04986 -0.0421698 -0.000207382)
(1.0517 -0.0411295 -0.000231558)
(1.05335 -0.0400604 -0.000254577)
(1.05506 -0.0390098 -0.000276646)
(1.05721 -0.0380055 -0.000297674)
(1.06032 -0.0370618 -0.000317391)
(1.06491 -0.0361775 -0.000335851)
(1.00012 -0.00476312 2.59175e-06)
(1.00345 -0.0206376 2.43618e-06)
(1.00756 -0.0303436 6.27902e-06)
(1.01231 -0.0384534 -1.8806e-05)
(1.01751 -0.0452774 -5.30084e-05)
(1.02311 -0.050673 -0.000113545)
(1.0288 -0.0546874 -0.000146577)
(1.03434 -0.0574996 -0.000169855)
(1.03967 -0.0592495 -0.000187767)
(1.04482 -0.0599413 -0.000180836)
(1.04975 -0.0598634 -0.000180194)
(1.05439 -0.0593634 -0.000201583)
(1.05867 -0.0585218 -0.00023453)
(1.06251 -0.0573618 -0.000272364)
(1.06586 -0.0559598 -0.000310298)
(1.06881 -0.0544139 -0.000344667)
(1.07164 -0.0528089 -0.000375499)
(1.07474 -0.0512109 -0.000403893)
(1.07865 -0.049665 -0.000429577)
(1.0839 -0.0481914 -0.000452905)
(1.00009 -0.00502324 -2.14862e-06)
(1.00283 -0.0221843 -1.95794e-05)
(1.0062 -0.033272 -1.20477e-05)
(1.01013 -0.0431599 -4.20381e-05)
(1.01496 -0.052168 -6.81074e-05)
(1.02068 -0.0602732 -9.10004e-05)
(1.02733 -0.0670743 -0.000106298)
(1.03452 -0.072199 -0.000120786)
(1.04166 -0.0757557 -0.00014859)
(1.04869 -0.0779873 -0.000182347)
(1.05543 -0.0790416 -0.000236491)
(1.06182 -0.0790963 -0.000305567)
(1.06802 -0.078439 -0.00037206)
(1.07392 -0.0772183 -0.000433085)
(1.07932 -0.0755582 -0.000487992)
(1.08421 -0.07359 -0.000538569)
(1.08878 -0.0714381 -0.000586147)
(1.09338 -0.0692132 -0.00062801)
(1.09854 -0.0669979 -0.000662947)
(1.10478 -0.064841 -0.000692469)
(1.00007 -0.00512887 -1.9129e-06)
(1.00176 -0.0229592 -3.5833e-05)
(1.00404 -0.0348621 -1.94713e-05)
(1.00653 -0.0462183 -2.57939e-05)
(1.01023 -0.0569976 -8.6374e-05)
(1.01509 -0.0675955 -8.25946e-05)
(1.02184 -0.0772446 -0.000112768)
(1.02976 -0.0856838 -0.000126475)
(1.0385 -0.0923447 -0.0001775)
(1.0476 -0.0972722 -0.000259271)
(1.05679 -0.100587 -0.000352025)
(1.06577 -0.102364 -0.00043449)
(1.07456 -0.102745 -0.00052247)
(1.08311 -0.10204 -0.00060199)
(1.09116 -0.100517 -0.000667373)
(1.09863 -0.0983825 -0.000728584)
(1.10562 -0.0958377 -0.000789072)
(1.1124 -0.093059 -0.000843415)
(1.11942 -0.0901829 -0.000888752)
(1.12715 -0.0873091 -0.000926302)
(1.00005 -0.00513158 -7.00308e-06)
(1.00031 -0.0230421 -4.19278e-05)
(1.00125 -0.035189 -1.53641e-05)
(1.00214 -0.0474611 -7.6029e-06)
(1.0039 -0.0597896 -0.000105056)
(1.0073 -0.0723754 -0.000110828)
(1.01277 -0.0850587 -0.000157117)
(1.02053 -0.0972853 -0.000202882)
(1.03 -0.108477 -0.000275711)
(1.04083 -0.117804 -0.000363155)
(1.05243 -0.124733 -0.000467308)
(1.06426 -0.129221 -0.000541947)
(1.07627 -0.131544 -0.000591774)
(1.08813 -0.132163 -0.000638561)
(1.09959 -0.131388 -0.000706161)
(1.11045 -0.12952 -0.000795852)
(1.12059 -0.126872 -0.000888982)
(1.1302 -0.123711 -0.000973811)
(1.13969 -0.120273 -0.00104707)
(1.14942 -0.116745 -0.00110835)
(0.999999 -0.0049794 1.44121e-05)
(0.999015 -0.0222316 -1.75842e-05)
(0.998318 -0.034718 -3.28352e-05)
(0.997445 -0.0472146 -1.40248e-05)
(0.996969 -0.0606657 -9.11387e-05)
(0.998228 -0.074856 -0.000178226)
(1.00142 -0.0901523 -0.000244397)
(1.00736 -0.105976 -0.000358194)
(1.01596 -0.12169 -0.000436555)
(1.02731 -0.136212 -0.000504488)
(1.04087 -0.148753 -0.000546642)
(1.056 -0.158705 -0.000564234)
(1.07198 -0.165796 -0.000601943)
(1.08836 -0.169962 -0.000674419)
(1.10435 -0.171597 -0.000766942)
(1.1194 -0.171187 -0.00085293)
(1.1337 -0.169152 -0.000944212)
(1.14728 -0.165882 -0.00104092)
(1.16011 -0.161825 -0.00113509)
(1.17228 -0.157433 -0.0012175)
(0.999789 -0.00469727 8.57687e-05)
(0.998147 -0.0209574 3.16633e-05)
(0.995681 -0.0332563 -6.56011e-05)
(0.992599 -0.0458753 -7.18266e-05)
(0.989963 -0.0595869 -0.0001351)
(0.988375 -0.0750935 -0.000235574)
(0.988761 -0.0922402 -0.000295097)
(0.991746 -0.111179 -0.00040193)
(0.998156 -0.130932 -0.000501078)
(1.00833 -0.150798 -0.000601187)
(1.02211 -0.169505 -0.000688145)
(1.03898 -0.185984 -0.000796927)
(1.05817 -0.199414 -0.000886235)
(1.07881 -0.209389 -0.000961793)
(1.09995 -0.215869 -0.00102439)
(1.12089 -0.219081 -0.00107735)
(1.14115 -0.219593 -0.00113011)
(1.16024 -0.218077 -0.00118451)
(1.17783 -0.21509 -0.00123933)
(1.1938 -0.210932 -0.00128017)
(0.999409 -0.00431574 0.000132378)
(0.996882 -0.0201776 1.73594e-05)
(0.993059 -0.0315245 -0.000136713)
(0.987981 -0.0435508 -0.00011414)
(0.982731 -0.0571773 -0.000204712)
(0.978466 -0.0733151 -0.000290995)
(0.975471 -0.092044 -0.000327796)
(0.975094 -0.113093 -0.000415676)
(0.978152 -0.136413 -0.000544383)
(0.985561 -0.16125 -0.000691747)
(0.997588 -0.186535 -0.000799926)
(1.01432 -0.210692 -0.00089748)
(1.03515 -0.232357 -0.000972022)
(1.05912 -0.250492 -0.00102744)
(1.08505 -0.264519 -0.00106272)
(1.11182 -0.274247 -0.00108613)
(1.13847 -0.279828 -0.00109695)
(1.16428 -0.281764 -0.00109879)
(1.18884 -0.280662 -0.00109405)
(1.21171 -0.27713 -0.00107167)
(0.99938 -0.00408312 6.89053e-05)
(0.996556 -0.0195085 -0.000121878)
(0.991175 -0.0299719 -0.000235155)
(0.984289 -0.0408999 -0.000270523)
(0.976488 -0.0537746 -0.000226726)
(0.968987 -0.0696787 -0.000389618)
(0.962482 -0.08908 -0.000411331)
(0.958145 -0.112099 -0.00052845)
(0.957052 -0.13832 -0.000633025)
(0.960402 -0.167136 -0.000718036)
(0.968782 -0.198333 -0.000864385)
(0.982957 -0.230449 -0.000953034)
(1.00305 -0.261829 -0.00101986)
(1.02849 -0.290449 -0.00104911)
(1.05811 -0.314775 -0.00104473)
(1.09066 -0.33381 -0.00100348)
(1.12475 -0.347169 -0.000935415)
(1.15916 -0.354971 -0.000849667)
(1.19297 -0.35776 -0.000750178)
(1.22508 -0.356276 -0.000623482)
(0.999562 -0.00388443 1.42672e-05)
(0.996205 -0.0183408 -4.61266e-05)
(0.990265 -0.028166 -0.000158752)
(0.982187 -0.0384795 -0.000253323)
(0.972556 -0.0507696 -0.000235433)
(0.96271 -0.0660951 -0.000363752)
(0.953044 -0.0851865 -0.000389486)
(0.944634 -0.108641 -0.000522686)
(0.938177 -0.136596 -0.000685395)
(0.935392 -0.168801 -0.0008212)
(0.937808 -0.204739 -0.000887217)
(0.946512 -0.243863 -0.000992104)
(0.96276 -0.284618 -0.00103826)
(0.986779 -0.325142 -0.00103261)
(1.01793 -0.362816 -0.000966922)
(1.05499 -0.395255 -0.000851087)
(1.09646 -0.420815 -0.000691524)
(1.14073 -0.438733 -0.000492203)
(1.18621 -0.449032 -0.000261608)
(1.23083 -0.452121 1.33124e-05)
(0.999824 -0.00366037 -9.56046e-06)
(0.995278 -0.0169569 2.85002e-05)
(0.9885 -0.0258133 -3.39166e-05)
(0.979675 -0.035273 -2.30632e-05)
(0.968926 -0.0468449 -0.00014431)
(0.957155 -0.0615006 -0.00020708)
(0.94515 -0.0801235 -0.000325929)
(0.933452 -0.10333 -0.0004957)
(0.922901 -0.13192 -0.000625892)
(0.915089 -0.165742 -0.000770527)
(0.910775 -0.205567 -0.000908259)
(0.911624 -0.250588 -0.000980425)
(0.919586 -0.299847 -0.00100501)
(0.936678 -0.351814 -0.000968002)
(0.964329 -0.404215 -0.00086482)
(1.00255 -0.453869 -0.000687789)
(1.04987 -0.497361 -0.000433234)
(1.10426 -0.531968 -0.000111444)
(1.1636 -0.555961 0.000274264)
(1.22538 -0.568165 0.000730402)
(0.999738 -0.00344081 -6.68316e-06)
(0.994757 -0.0157825 -2.49591e-05)
(0.987069 -0.0237096 -9.24038e-05)
(0.97701 -0.0321454 -0.000104877)
(0.964831 -0.0427314 -0.000191406)
(0.951027 -0.056517 -0.000251044)
(0.936085 -0.0742627 -0.000362465)
(0.920632 -0.0969003 -0.000502523)
(0.905701 -0.125345 -0.000647372)
(0.892436 -0.160002 -0.000789622)
(0.882277 -0.201339 -0.000914294)
(0.876665 -0.2496 -0.00101158)
(0.877101 -0.304839 -0.00103298)
(0.885181 -0.366742 -0.000967486)
(0.903283 -0.43406 -0.000800186)
(0.934485 -0.504071 -0.00054695)
(0.981072 -0.571979 -0.000223334)
(1.04264 -0.632143 0.00018176)
(1.11715 -0.680194 0.000703335)
(1.20351 -0.710692 0.00134704)
(0.99975 -0.00327967 -8.16502e-06)
(0.99447 -0.014719 -8.16588e-06)
(0.98644 -0.0219187 -6.49751e-05)
(0.975561 -0.0295947 -9.41885e-05)
(0.96243 -0.0393377 -0.000167019)
(0.947029 -0.0520151 -0.000253761)
(0.929886 -0.0687372 -0.000366623)
(0.911406 -0.0905287 -0.000512915)
(0.892462 -0.118317 -0.000656846)
(0.873896 -0.152896 -0.000800779)
(0.856863 -0.194986 -0.000924506)
(0.842674 -0.245083 -0.00101133)
(0.833084 -0.303615 -0.00103865)
(0.830211 -0.37101 -0.000990449)
(0.836527 -0.447966 -0.000846361)
(0.855103 -0.535059 -0.000572809)
(0.890529 -0.63132 -0.000163356)
(0.948242 -0.730819 0.000342051)
(1.03273 -0.822694 0.000946608)
(1.14961 -0.895363 0.00172062)
(0.999716 -0.00312225 -8.89769e-06)
(0.994042 -0.013744 -2.07322e-05)
(0.985503 -0.0202722 -7.04075e-05)
(0.974054 -0.0272655 -0.000106147)
(0.959896 -0.0361353 -0.000175769)
(0.943126 -0.0478697 -0.000266396)
(0.924096 -0.0635156 -0.000380477)
(0.903128 -0.0841382 -0.000523667)
(0.88086 -0.110853 -0.000667847)
(0.858011 -0.144522 -0.00081268)
(0.835476 -0.186037 -0.000935675)
(0.814213 -0.236201 -0.00102094)
(0.795298 -0.295927 -0.00104541)
(0.779908 -0.366366 -0.000993683)
(0.769838 -0.449051 -0.000854047)
(0.768177 -0.546255 -0.000621315)
(0.780257 -0.66177 -0.000274678)
(0.814709 -0.801279 0.000228353)
(0.883917 -0.965162 0.000908762)
(1.01879 -1.13375 0.00174089)
(0.999728 -0.00296717 -6.52531e-06)
(0.993795 -0.0129026 -2.24078e-05)
(0.984942 -0.0188534 -6.30584e-05)
(0.973082 -0.0251607 -0.0001011)
(0.958178 -0.0331953 -0.00017177)
(0.940314 -0.0439499 -0.000267728)
(0.919746 -0.0584366 -0.000381305)
(0.896689 -0.0778213 -0.000524862)
(0.87159 -0.103212 -0.000672947)
(0.84496 -0.135644 -0.000817926)
(0.817417 -0.17608 -0.000942166)
(0.789613 -0.225445 -0.00102875)
(0.762226 -0.284704 -0.00106008)
(0.735863 -0.354981 -0.00102047)
(0.711052 -0.437958 -0.000900155)
(0.688183 -0.536821 -0.0006879)
(0.667957 -0.658295 -0.000382498)
(0.651046 -0.815555 -1.5237e-05)
(0.647077 -1.03885 0.000444484)
(0.620642 -1.30421 0.00187563)
(0.998462 0.00609736 -5.15981e-06)
(0.997103 0.00456538 -7.53225e-06)
(0.996148 0.00359194 -8.66905e-06)
(0.995515 0.00301413 -2.61765e-05)
(0.995085 0.00267631 -5.82846e-05)
(0.99481 0.00248108 -0.000105908)
(0.994646 0.00237553 -0.000159411)
(0.994514 0.00230972 -0.000222989)
(0.994278 0.00220339 -0.000276347)
(0.994006 0.00199351 -0.000275704)
(0.993736 0.0016478 -0.000206541)
(0.993636 0.00120847 -8.76471e-05)
(0.993785 0.000773478 -7.47933e-06)
(0.993985 0.000359687 3.46286e-05)
(0.994395 -1.71581e-05 9.27135e-05)
(0.994935 -0.000335812 0.000141269)
(0.995446 -0.000580225 0.000151395)
(0.995832 -0.000783333 0.000144049)
(0.996047 -0.000960265 0.000130776)
(0.996252 -0.00106692 0.000117502)
(1.00004 -0.000698933 6.29526e-06)
(1.00132 -0.00315773 -1.47401e-05)
(1.00287 -0.00458177 -8.12892e-06)
(1.00472 -0.00570386 1.70107e-05)
(1.00667 -0.00661251 -2.84993e-05)
(1.00848 -0.00730134 -9.70597e-05)
(1.00998 -0.00781402 -0.00014427)
(1.01113 -0.00818367 -0.000147489)
(1.01199 -0.00845715 -0.000102512)
(1.01264 -0.00862294 -3.24837e-05)
(1.01313 -0.00867559 1.9579e-05)
(1.01352 -0.00865364 3.56787e-05)
(1.01387 -0.00864638 3.7823e-05)
(1.01426 -0.00870241 2.68746e-05)
(1.01478 -0.00875042 -6.05565e-06)
(1.01526 -0.00872407 -1.58582e-05)
(1.01597 -0.00866164 2.04229e-05)
(1.01699 -0.00862436 8.35838e-05)
(1.0186 -0.00863899 0.000105104)
(1.02111 -0.00866783 7.87404e-05)
(1.00005 -0.00131087 -7.37497e-06)
(1.00159 -0.00582409 1.96145e-05)
(1.00345 -0.00846823 1.63547e-05)
(1.00571 -0.0105026 1.1777e-05)
(1.00809 -0.0119716 -3.75833e-05)
(1.01037 -0.0129932 -0.000127136)
(1.01239 -0.0137049 -0.000230792)
(1.01406 -0.014191 -0.000274086)
(1.01539 -0.0145078 -0.00022099)
(1.01642 -0.0147561 -0.000128463)
(1.01722 -0.0149945 -6.12868e-05)
(1.0178 -0.0152309 -3.853e-05)
(1.01817 -0.0154342 -3.79113e-05)
(1.01862 -0.0155868 -4.30307e-05)
(1.01941 -0.0157596 -5.62929e-05)
(1.02021 -0.0159883 -3.38787e-05)
(1.02123 -0.0161994 2.88583e-05)
(1.02223 -0.016335 0.000110144)
(1.02368 -0.0163745 0.000188173)
(1.02596 -0.0163719 0.000226394)
(1.00006 -0.0024491 3.69642e-05)
(1.00197 -0.0103963 0.000108999)
(1.00437 -0.0147172 -1.65429e-05)
(1.00735 -0.0178059 -0.000188197)
(1.01053 -0.019891 -0.00024546)
(1.01357 -0.0212007 -0.000199342)
(1.01629 -0.0219753 -0.000138479)
(1.0186 -0.0224144 -9.63327e-05)