/*--------------------------------*- C++ -*----------------------------------*\
| =========                 |                                                 |
| \\      /  F ield         | OpenFOAM: The Open Source CFD Toolbox           |
|  \\    /   O peration     | Version:  4.x                                   |
|   \\  /    A nd           | Web:      www.OpenFOAM.org                      |
|    \\/     M anipulation  |                                                 |
\*---------------------------------------------------------------------------*/
FoamFile
{
    version     2.0;
    format      ascii;
    class       volVectorField;
    location    "250";
    object      UMean_w1;
}
// * * * * * * * * * * * * * * * * * * * * * * * * * * * * * * * * * * * * * //

dimensions      [0 1 -1 0 0 0 0];

internalField   nonuniform List<vector> 
112000
(
(0.998561 0.00565548 -2.20443e-06)
(0.997633 0.00421622 -1.48682e-06)
(0.997074 0.00317602 -1.24343e-05)
(0.996859 0.00254831 -3.19786e-05)
(0.996846 0.00217391 -6.53696e-05)
(0.996944 0.001927 -0.000123786)
(0.99707 0.00171909 -0.000212119)
(0.997189 0.00148691 -0.000306491)
(0.997303 0.00119254 -0.000366635)
(0.997492 0.000837635 -0.000377522)
(0.997813 0.000460266 -0.000348936)
(0.998261 0.000103851 -0.000289194)
(0.998794 -0.000201247 -0.000193675)
(0.999335 -0.000447788 -6.18825e-05)
(0.99981 -0.000651507 9.24315e-05)
(1.00021 -0.000833315 0.000246863)
(1.00055 -0.00100458 0.000382011)
(1.00081 -0.00117285 0.000482452)
(1.00104 -0.00133617 0.000538265)
(1.00137 -0.00142294 0.000545864)
(1.00008 -0.00087621 -1.3417e-05)
(1.00147 -0.00380906 -6.96599e-05)
(1.0032 -0.00580947 -4.74306e-05)
(1.0054 -0.00751217 -1.15082e-05)
(1.00776 -0.00891424 1.09812e-05)
(1.00999 -0.00999507 2.26527e-05)
(1.01195 -0.0107486 3.28669e-05)
(1.01358 -0.0112148 3.42264e-05)
(1.01489 -0.0114724 1.389e-05)
(1.01593 -0.0116053 -1.63377e-05)
(1.01677 -0.0116931 -3.34929e-05)
(1.01748 -0.0117826 -2.96955e-05)
(1.01813 -0.0118785 -1.2119e-05)
(1.01877 -0.0119688 9.76559e-06)
(1.01945 -0.0120412 2.79419e-05)
(1.02022 -0.0120888 3.68709e-05)
(1.02118 -0.0121109 3.57634e-05)
(1.0225 -0.0121065 2.66255e-05)
(1.02442 -0.0120726 1.24753e-05)
(1.02721 -0.0120053 -2.7694e-06)
(1.00009 -0.00164845 -3.41451e-05)
(1.0016 -0.0068821 -0.00014705)
(1.00361 -0.0102826 -2.78214e-05)
(1.00618 -0.0131437 0.000108301)
(1.00901 -0.0154761 0.000150037)
(1.01184 -0.0173475 0.000137037)
(1.01447 -0.0188302 0.000148241)
(1.01679 -0.0199891 0.00017566)
(1.01871 -0.0208624 0.000163265)
(1.02026 -0.021482 0.000112926)
(1.02147 -0.0218747 6.40887e-05)
(1.02247 -0.0220817 3.76892e-05)
(1.02336 -0.0221646 3.08704e-05)
(1.02417 -0.0221793 3.25357e-05)
(1.02496 -0.0221622 3.29472e-05)
(1.02579 -0.0221325 2.69386e-05)
(1.02681 -0.0220958 1.4157e-05)
(1.02828 -0.0220484 -3.90308e-06)
(1.03059 -0.0219798 -2.51771e-05)
(1.03413 -0.0218738 -4.73077e-05)
(1.00012 -0.00285883 5.94917e-06)
(1.00199 -0.0114961 -5.34803e-05)
(1.00445 -0.0167206 -8.82302e-05)
(1.00755 -0.0209291 -8.46662e-05)
(1.01097 -0.0243577 -4.82265e-05)
(1.01448 -0.0271063 -5.66598e-06)
(1.01788 -0.0292427 2.7508e-05)
(1.02102 -0.0308244 4.06425e-05)
(1.02383 -0.031925 3.60404e-05)
(1.02629 -0.0326299 2.1962e-05)
(1.02841 -0.0330249 8.72002e-06)
(1.0302 -0.0331895 4.23366e-06)
(1.03171 -0.0331933 7.76363e-06)
(1.033 -0.0330918 1.40366e-05)
(1.03417 -0.0329244 1.86162e-05)
(1.03534 -0.0327149 1.97281e-05)
(1.03673 -0.0324782 1.73161e-05)
(1.03863 -0.0322247 1.14631e-05)
(1.04146 -0.0319609 3.18453e-06)
(1.04569 -0.0316863 -3.39832e-06)
(1.00014 -0.00376666 0.000106658)
(1.00269 -0.0152835 0.000323514)
(1.006 -0.0225884 2.208e-05)
(1.00989 -0.028586 -0.000427049)
(1.01407 -0.0334107 -0.000675422)
(1.01823 -0.0372977 -0.000589196)
(1.02241 -0.0404374 -0.000196995)
(1.0265 -0.0429198 0.000208314)
(1.03039 -0.0447717 0.000336351)
(1.03402 -0.0460365 0.000261026)
(1.03729 -0.0467957 0.000162211)
(1.04015 -0.0471497 0.000104962)
(1.04261 -0.0472011 8.47827e-05)
(1.04472 -0.0470412 8.21599e-05)
(1.04659 -0.0467458 8.18023e-05)
(1.04838 -0.0463727 7.63098e-05)
(1.05032 -0.0459599 6.56139e-05)
(1.05273 -0.0455296 5.2347e-05)
(1.05605 -0.0450936 3.90859e-05)
(1.06081 -0.0446512 2.83441e-05)
(1.00015 -0.00458137 -8.64692e-06)
(1.00301 -0.01872 -4.15835e-05)
(1.00675 -0.028048 2.43007e-05)
(1.01121 -0.0361318 0.000112087)
(1.01613 -0.0430226 0.000130845)
(1.02118 -0.048721 7.2237e-05)
(1.02609 -0.0533209 -1.17604e-05)
(1.03102 -0.0569008 -1.27588e-05)
(1.03598 -0.0596467 3.17761e-05)
(1.04088 -0.0617289 3.63843e-05)
(1.04562 -0.0631532 -6.48208e-06)
(1.05 -0.0639605 -4.96588e-05)
(1.05389 -0.0642632 -7.2918e-05)
(1.05728 -0.0641899 -8.30556e-05)
(1.06025 -0.0638543 -8.80107e-05)
(1.06296 -0.0633487 -8.95482e-05)
(1.06569 -0.0627446 -8.77562e-05)
(1.0688 -0.0620898 -8.4527e-05)
(1.07281 -0.0614136 -8.12849e-05)
(1.07823 -0.0607276 -7.82722e-05)
(1.00013 -0.0049097 6.47928e-06)
(1.00284 -0.0204819 3.05699e-05)
(1.00641 -0.0315203 3.52569e-05)
(1.01077 -0.0418323 -1.7826e-06)
(1.01587 -0.0513118 -0.000116274)
(1.02138 -0.05965 -0.000240164)
(1.02715 -0.0666217 -0.000184841)
(1.0331 -0.0723674 -2.10578e-05)
(1.03916 -0.0769357 0.000170549)
(1.04541 -0.0803135 0.000336772)
(1.05172 -0.0826872 0.000391841)
(1.05782 -0.0842399 0.000327027)
(1.06347 -0.0850896 0.000218235)
(1.06856 -0.0853546 0.000128594)
(1.07311 -0.0851652 7.49775e-05)
(1.07726 -0.0846457 4.81969e-05)
(1.08125 -0.0839016 3.47158e-05)
(1.08547 -0.0830172 2.59538e-05)
(1.09044 -0.0820586 1.85595e-05)
(1.09668 -0.081069 1.12046e-05)
(1.00009 -0.00502293 1.55173e-06)
(1.00209 -0.0214831 7.52037e-06)
(1.00474 -0.0338601 -1.26939e-06)
(1.00808 -0.0461659 -2.79997e-05)
(1.0124 -0.0582843 -6.9388e-05)
(1.01792 -0.0697864 -9.7316e-05)
(1.02444 -0.080063 -9.78771e-05)
(1.03163 -0.0885918 -2.03638e-05)
(1.03907 -0.0953052 0.000115025)
(1.04677 -0.100426 0.000270153)
(1.05461 -0.104288 0.000379386)
(1.06242 -0.107084 0.000366778)
(1.06999 -0.108946 0.000271612)
(1.07714 -0.109979 0.000166834)
(1.08378 -0.110294 8.76267e-05)
(1.08994 -0.110026 3.64108e-05)
(1.0958 -0.109332 4.54825e-06)
(1.1017 -0.108346 -1.55547e-05)
(1.1081 -0.107178 -2.8912e-05)
(1.11548 -0.105905 -3.86904e-05)
(1.00003 -0.0049487 3.07182e-06)
(1.001 -0.0217037 8.91498e-07)
(1.00229 -0.0348813 -1.13279e-06)
(1.00405 -0.0485647 4.78583e-07)
(1.00686 -0.0626272 6.20112e-06)
(1.01126 -0.076718 1.72228e-05)
(1.0175 -0.0902679 3.82536e-05)
(1.0253 -0.102597 6.58729e-05)
(1.03418 -0.11313 8.36724e-05)
(1.04353 -0.12177 8.93059e-05)
(1.05321 -0.128539 0.000103188)
(1.06293 -0.133592 0.000120496)
(1.07236 -0.137175 0.000103713)
(1.08171 -0.139484 5.80118e-05)
(1.09083 -0.140691 7.06714e-06)
(1.09953 -0.140985 -3.42701e-05)
(1.10781 -0.140589 -6.31678e-05)
(1.11592 -0.139698 -8.25213e-05)
(1.12431 -0.138463 -9.59401e-05)
(1.13332 -0.136998 -0.000106063)
(0.999956 -0.00471022 2.9919e-07)
(0.999714 -0.0211654 2.12578e-06)
(0.999444 -0.0346401 3.2969e-06)
(0.99934 -0.0491327 1.00124e-05)
(1.00012 -0.0645927 2.14441e-05)
(1.00257 -0.0808087 3.80865e-05)
(1.00722 -0.0973809 5.29088e-05)
(1.01424 -0.113713 5.55258e-05)
(1.02325 -0.129102 5.10184e-05)
(1.03371 -0.142727 2.68006e-05)
(1.04508 -0.153999 -5.19149e-07)
(1.05688 -0.162775 -3.47423e-05)
(1.06899 -0.169173 -8.57472e-05)
(1.08124 -0.173547 -0.000134712)
(1.09336 -0.176244 -0.000162352)
(1.10508 -0.177588 -0.000175197)
(1.11628 -0.177861 -0.000185609)
(1.1271 -0.177326 -0.000199094)
(1.13793 -0.176222 -0.000214303)
(1.14895 -0.174743 -0.000227463)
(0.999927 -0.00440048 -2.15155e-06)
(0.998384 -0.0201334 7.07431e-07)
(0.996503 -0.0334358 4.90449e-06)
(0.994441 -0.0482156 9.04629e-06)
(0.992926 -0.0645374 1.70354e-05)
(0.992817 -0.0823701 2.9414e-05)
(0.994863 -0.101479 4.18219e-05)
(0.999541 -0.121403 4.92842e-05)
(1.00704 -0.141365 4.45555e-05)
(1.01725 -0.160304 1.19573e-05)
(1.02972 -0.177299 -5.61663e-05)
(1.04389 -0.191731 -0.000143009)
(1.05912 -0.203288 -0.000202229)
(1.07498 -0.211877 -0.000210771)
(1.09069 -0.217838 -0.000172655)
(1.1059 -0.221567 -0.000118497)
(1.12073 -0.223447 -9.01367e-05)
(1.13507 -0.223847 -8.91018e-05)
(1.1489 -0.223194 -0.000101661)
(1.16212 -0.22191 -0.000118295)
(0.999979 -0.00405506 2.62224e-06)
(0.997031 -0.0188749 -2.05989e-06)
(0.993618 -0.0315763 2.49926e-06)
(0.989605 -0.0461442 4.67255e-06)
(0.985688 -0.0628173 9.2345e-06)
(0.982735 -0.0816848 1.74249e-05)
(0.981606 -0.102658 2.77495e-05)
(0.983046 -0.1254 3.55243e-05)
(0.987697 -0.149261 3.26409e-05)
(0.995986 -0.173312 1.43064e-05)
(1.00781 -0.196377 -1.47767e-05)
(1.02271 -0.217339 -3.95972e-05)
(1.04 -0.235405 -5.04589e-05)
(1.05891 -0.250163 -5.06986e-05)
(1.07866 -0.261477 -5.08105e-05)
(1.09857 -0.269501 -6.04012e-05)
(1.11812 -0.274744 -8.11154e-05)
(1.1369 -0.277793 -0.000106729)
(1.15459 -0.279127 -0.000131067)
(1.17109 -0.278987 -0.000151267)
(0.999879 -0.00368078 2.15323e-06)
(0.996018 -0.0175762 -2.32674e-06)
(0.99126 -0.029467 9.25061e-07)
(0.98538 -0.0434239 1.32365e-06)
(0.979043 -0.0598774 3.70797e-06)
(0.973109 -0.0791196 8.51224e-06)
(0.968508 -0.101229 1.52036e-05)
(0.966147 -0.12602 2.02613e-05)
(0.966925 -0.153049 1.96886e-05)
(0.971651 -0.181635 1.29303e-05)
(0.980868 -0.210773 3.06309e-06)
(0.994588 -0.239099 -9.45331e-06)
(1.0123 -0.265214 -2.62178e-05)
(1.03319 -0.288071 -4.75317e-05)
(1.05624 -0.307081 -7.1593e-05)
(1.08044 -0.322016 -9.59838e-05)
(1.10494 -0.332927 -0.000119441)
(1.12908 -0.340176 -0.000141448)
(1.15236 -0.344315 -0.00016153)
(1.17439 -0.345895 -0.000179448)
(0.999554 -0.00333394 1.01873e-06)
(0.995655 -0.016305 -2.3459e-06)
(0.989821 -0.027369 -2.86387e-07)
(0.982381 -0.0405413 -8.96147e-07)
(0.973908 -0.056335 -4.81492e-07)
(0.965142 -0.0752475 1.39567e-06)
(0.956959 -0.0976264 3.86056e-06)
(0.95032 -0.123581 5.91835e-06)
(0.946295 -0.152974 6.12679e-06)
(0.94604 -0.185352 4.05553e-06)
(0.950633 -0.219892 -1.28066e-06)
(0.960792 -0.25543 -1.32415e-05)
(0.976623 -0.290432 -3.18624e-05)
(0.997552 -0.323155 -5.50598e-05)
(1.02262 -0.352093 -8.10482e-05)
(1.05073 -0.376246 -0.00010874)
(1.08067 -0.395162 -0.00013751)
(1.11136 -0.408877 -0.000166838)
(1.14186 -0.417804 -0.000195634)
(1.17131 -0.422537 -0.000223214)
(0.99953 -0.00299162 -1.21967e-06)
(0.995083 -0.014799 1.30789e-06)
(0.988308 -0.0249775 3.36656e-06)
(0.97954 -0.0372463 4.59915e-06)
(0.969305 -0.0522091 5.22215e-06)
(0.958266 -0.0704616 6.91086e-06)
(0.947181 -0.0925284 7.46709e-06)
(0.936836 -0.11876 6.4114e-06)
(0.928156 -0.149332 2.82467e-06)
(0.922269 -0.184208 -3.82296e-06)
(0.920512 -0.223041 -1.34558e-05)
(0.924306 -0.264984 -2.64075e-05)
(0.934877 -0.308647 -4.28864e-05)
(0.95278 -0.352126 -6.40722e-05)
(0.97758 -0.393162 -9.11613e-05)
(1.00815 -0.429691 -0.000123877)
(1.04313 -0.460237 -0.000160852)
(1.08106 -0.483995 -0.000200626)
(1.12054 -0.500817 -0.000241118)
(1.15998 -0.511003 -0.00028165)
(0.99969 -0.00273017 -7.42906e-07)
(0.99445 -0.0133536 1.3297e-06)
(0.986881 -0.0226047 2.70843e-06)
(0.976931 -0.0338771 4.27494e-06)
(0.965011 -0.0478332 5.90404e-06)
(0.951665 -0.0651356 7.58282e-06)
(0.937603 -0.0864283 9.32625e-06)
(0.923613 -0.112299 1.01497e-05)
(0.910603 -0.143174 8.69786e-06)
(0.899698 -0.179274 3.67962e-06)
(0.892089 -0.220626 -7.18289e-06)
(0.88899 -0.26703 -2.48077e-05)
(0.891797 -0.317877 -4.77047e-05)
(0.902264 -0.371808 -7.37639e-05)
(0.922048 -0.426545 -0.000102383)
(0.951625 -0.478888 -0.000136593)
(0.989846 -0.525711 -0.000179609)
(1.03482 -0.564814 -0.000230844)
(1.08483 -0.594725 -0.00028648)
(1.13786 -0.614405 -0.000345856)
(0.999667 -0.0024579 6.98497e-07)
(0.994073 -0.0120756 4.27796e-08)
(0.985919 -0.020485 1.04642e-06)
(0.975073 -0.0308054 2.27879e-06)
(0.961831 -0.0437242 3.62913e-06)
(0.946576 -0.0599451 4.9825e-06)
(0.92983 -0.0802143 6.09757e-06)
(0.912235 -0.105276 6.24919e-06)
(0.894582 -0.135764 4.77111e-06)
(0.877918 -0.172158 8.57742e-07)
(0.863592 -0.214789 -6.28431e-06)
(0.853169 -0.263798 -1.76312e-05)
(0.848254 -0.319131 -3.55753e-05)
(0.850345 -0.380515 -6.3283e-05)
(0.861106 -0.447245 -0.000101495)
(0.882903 -0.517389 -0.000146329)
(0.91812 -0.586636 -0.000194389)
(0.967072 -0.649307 -0.000249763)
(1.02835 -0.701077 -0.000318288)
(1.1005 -0.738254 -0.000399059)
(0.999677 -0.00222724 1.04809e-07)
(0.993745 -0.0109472 4.69091e-07)
(0.98511 -0.0186079 1.27712e-06)
(0.973514 -0.0280539 2.39589e-06)
(0.959177 -0.0399635 3.67346e-06)
(0.942376 -0.055058 5.00315e-06)
(0.923511 -0.0741496 6.14333e-06)
(0.90308 -0.0980761 6.50248e-06)
(0.881722 -0.127606 5.16323e-06)
(0.860256 -0.163409 1.11789e-06)
(0.839686 -0.206087 -6.59767e-06)
(0.821184 -0.256173 -1.8786e-05)
(0.806215 -0.314129 -3.57532e-05)
(0.796773 -0.380363 -5.77955e-05)
(0.795434 -0.455238 -8.72547e-05)
(0.805085 -0.539065 -0.000130339)
(0.829099 -0.631365 -0.000190966)
(0.871771 -0.728132 -0.000260607)
(0.938755 -0.820213 -0.000330676)
(1.03447 -0.898092 -0.000418899)
(0.999668 -0.00203208 6.21204e-08)
(0.993493 -0.00992241 6.04448e-07)
(0.984481 -0.0168983 1.38252e-06)
(0.972299 -0.0255289 2.50744e-06)
(0.9571 -0.0364842 3.79583e-06)
(0.93906 -0.0504871 5.09362e-06)
(0.918442 -0.0683677 6.1003e-06)
(0.895595 -0.0910057 6.23577e-06)
(0.870978 -0.119253 4.74366e-06)
(0.845224 -0.153907 9.02889e-07)
(0.819158 -0.195721 -5.80043e-06)
(0.793763 -0.245414 -1.59376e-05)
(0.770087 -0.303727 -3.07167e-05)
(0.7492 -0.371606 -5.23821e-05)
(0.732468 -0.450507 -8.24763e-05)
(0.722493 -0.542635 -0.000119554)
(0.724133 -0.651177 -0.000165022)
(0.744731 -0.780754 -0.000231123)
(0.795482 -0.933121 -0.000325433)
(0.896886 -1.08876 -0.000442947)
(0.999661 -0.00185122 1.55567e-07)
(0.993296 -0.00901864 4.92006e-07)
(0.983997 -0.0153806 1.18634e-06)
(0.971354 -0.0232779 2.22612e-06)
(0.955462 -0.0333565 3.40933e-06)
(0.936406 -0.0463223 4.55443e-06)
(0.914333 -0.0629945 5.41549e-06)
(0.889459 -0.0842652 5.63528e-06)
(0.862116 -0.111036 4.65088e-06)
(0.832784 -0.144175 1.84927e-06)
(0.802065 -0.184512 -3.54818e-06)
(0.770606 -0.23286 -1.27483e-05)
(0.738999 -0.290089 -2.70987e-05)
(0.707776 -0.357266 -4.71583e-05)
(0.677463 -0.43588 -7.228e-05)
(0.648397 -0.528399 -0.000103843)
(0.620589 -0.640119 -0.000146957)
(0.594764 -0.782404 -0.000198383)
(0.581411 -0.982554 -0.000255462)
(0.537676 -1.19792 -0.000672955)
(0.998488 0.00603979 -3.06636e-06)
(0.997314 0.00439218 -1.4163e-05)
(0.996605 0.00333604 -1.70565e-05)
(0.996273 0.00271058 -1.48638e-05)
(0.996172 0.00234435 -3.9401e-06)
(0.996192 0.00210521 2.40544e-05)
(0.996254 0.00190312 7.85245e-05)
(0.996344 0.00167617 0.00015206)
(0.996478 0.00138972 0.000224034)
(0.996683 0.00104347 0.000275287)
(0.996991 0.000667594 0.000289814)
(0.997411 0.000303271 0.000262002)
(0.997912 -1.69465e-05 0.000193728)
(0.99843 -0.000283626 9.14263e-05)
(0.9989 -0.000508386 -2.70823e-05)
(0.999302 -0.000709035 -0.00014146)
(0.999619 -0.000898662 -0.000239013)
(0.999876 -0.00108243 -0.000308627)
(1.00011 -0.00125603 -0.000342964)
(1.00043 -0.00135206 -0.00034012)
(1.00007 -0.000852897 -6.87963e-06)
(1.00147 -0.00394165 -1.29665e-05)
(1.00321 -0.00593119 1.45662e-06)
(1.00542 -0.0075979 1.23603e-05)
(1.00779 -0.00895542 5.47327e-06)
(1.01003 -0.00997935 -1.53838e-05)
(1.01197 -0.0106682 -3.91995e-05)
(1.01353 -0.0111023 -6.19752e-05)
(1.01477 -0.011407 -8.49872e-05)
(1.01578 -0.0116461 -0.000101817)
(1.01665 -0.011831 -9.87711e-05)
(1.01742 -0.0119691 -6.94368e-05)
(1.01812 -0.0120706 -2.02155e-05)
(1.01878 -0.0121432 3.84875e-05)
(1.01945 -0.0121906 9.88011e-05)
(1.02019 -0.0122152 0.000156301)
(1.02112 -0.0122198 0.000206971)
(1.0224 -0.0122058 0.000245297)
(1.0243 -0.0121722 0.000264843)
(1.02708 -0.0121152 0.000260038)
(1.00008 -0.00159505 -3.40701e-07)
(1.00167 -0.00699301 1.32948e-05)
(1.00372 -0.0103903 3.14781e-05)
(1.00629 -0.0132222 3.0023e-05)
(1.00909 -0.0155696 -7.85843e-06)
(1.0119 -0.0175228 -6.95537e-05)
(1.01452 -0.0191049 -0.000134854)
(1.01672 -0.0203111 -0.000198937)
(1.01848 -0.0211291 -0.000265869)
(1.01996 -0.0216209 -0.000318491)
(1.02125 -0.0218926 -0.000324066)
(1.02237 -0.0220309 -0.000266372)
(1.02334 -0.0220937 -0.000157806)
(1.02418 -0.0221167 -2.12548e-05)
(1.02493 -0.0221199 0.000122415)
(1.02571 -0.0221109 0.000256358)
(1.02667 -0.0220883 0.000370497)
(1.02811 -0.0220448 0.000458032)
(1.0304 -0.0219695 0.000510567)
(1.03395 -0.0218484 0.000517272)
(1.0001 -0.00262827 3.57753e-05)
(1.00198 -0.0113733 7.71176e-05)
(1.00448 -0.0167756 -3.62311e-05)
(1.00762 -0.0212405 -0.00016114)
(1.01103 -0.0247489 -0.000178964)
(1.01452 -0.0273872 -0.00011587)
(1.0179 -0.0293643 -5.12744e-05)
(1.02102 -0.030847 -2.25468e-05)
(1.02381 -0.0319333 -2.40647e-05)
(1.02626 -0.0326668 -3.85134e-05)
(1.02838 -0.0330906 -5.59013e-05)
(1.03018 -0.0332695 -7.09837e-05)
(1.0317 -0.0332761 -8.199e-05)
(1.03299 -0.0331709 -8.9004e-05)
(1.03417 -0.0329967 -9.06578e-05)
(1.03536 -0.0327804 -8.50219e-05)
(1.03676 -0.0325395 -7.10998e-05)
(1.03866 -0.0322854 -4.99377e-05)
(1.04148 -0.0320238 -2.56582e-05)
(1.0457 -0.0317517 -3.76807e-06)
(1.00013 -0.00367285 0.000103496)
(1.00251 -0.0155847 0.000297249)
(1.0056 -0.0227676 4.87478e-05)
(1.00953 -0.0285677 -0.000342359)
(1.01399 -0.0333297 -0.000634464)
(1.01854 -0.0372635 -0.000597541)
(1.02293 -0.0404456 -0.000269084)
(1.02681 -0.0429312 0.000121808)
(1.03031 -0.0447706 0.000339385)
(1.03377 -0.0460277 0.000324463)
(1.03708 -0.0467882 0.000224877)
(1.04002 -0.0471451 0.000145671)
(1.04255 -0.0471969 0.000104552)
(1.04469 -0.0470369 8.84525e-05)
(1.04657 -0.0467423 8.25967e-05)
(1.04836 -0.0463717 7.81665e-05)
(1.05029 -0.0459618 7.23813e-05)
(1.05268 -0.0455337 6.50159e-05)
(1.05601 -0.0450987 5.66806e-05)
(1.06077 -0.0446567 4.87033e-05)
(1.00013 -0.00434179 1.2556e-05)
(1.00306 -0.0187547 2.94873e-05)
(1.00689 -0.0280041 2.05482e-06)
(1.01136 -0.03608 -2.4535e-05)
(1.01623 -0.043046 -7.40356e-06)
(1.02123 -0.0488824 -2.04664e-05)
(1.02615 -0.0536179 -6.55467e-05)
(1.03116 -0.0572409 -4.34608e-05)
(1.03613 -0.0598893 -1.19753e-05)
(1.04094 -0.0618247 4.40013e-06)
(1.04562 -0.0631632 8.6568e-06)
(1.05001 -0.0639471 7.62698e-06)
(1.05393 -0.0642584 4.70098e-06)
(1.05733 -0.0641986 7.09119e-07)
(1.06031 -0.0638699 -3.89568e-06)
(1.06302 -0.0633652 -7.80352e-06)
(1.06575 -0.0627591 -1.0473e-05)
(1.06887 -0.0621013 -1.23328e-05)
(1.07288 -0.0614224 -1.36468e-05)
(1.07831 -0.0607353 -1.44534e-05)
(1.00012 -0.0046775 2.85677e-06)
(1.00285 -0.0205537 1.57398e-05)
(1.00639 -0.0316145 2.13058e-05)
(1.01066 -0.041982 1.61686e-05)
(1.01569 -0.0515217 -6.04768e-06)
(1.02135 -0.0599071 -3.81896e-05)
(1.02741 -0.0669033 -5.19353e-05)
(1.03353 -0.072625 -5.44928e-05)
(1.0397 -0.0771173 -5.57055e-05)
(1.04586 -0.080339 -2.83664e-05)
(1.0519 -0.0825413 1.25505e-05)
(1.05776 -0.0840414 4.15072e-05)
(1.06333 -0.0849259 5.26529e-05)
(1.06846 -0.085242 5.25679e-05)
(1.07309 -0.085089 4.88154e-05)
(1.0773 -0.0845875 4.56461e-05)
(1.08131 -0.0838502 4.39635e-05)
(1.08553 -0.082971 4.29138e-05)
(1.09049 -0.0820198 4.19675e-05)
(1.09672 -0.0810397 4.06429e-05)
(1.00008 -0.00480898 -6.31809e-07)
(1.00209 -0.0215898 5.71192e-06)
(1.00471 -0.0339409 4.53208e-06)
(1.008 -0.0461913 -3.89586e-06)
(1.01229 -0.0582028 -1.16493e-05)
(1.01783 -0.0696088 -6.42596e-06)
(1.02445 -0.0798875 1.43432e-05)
(1.03187 -0.0885374 4.42558e-05)
(1.03954 -0.0954896 5.85589e-05)
(1.04731 -0.100932 6.45758e-05)
(1.05497 -0.104975 6.31154e-05)
(1.06243 -0.107764 5.60729e-05)
(1.06981 -0.109566 4.5954e-05)
(1.07696 -0.110538 3.40691e-05)
(1.08367 -0.110808 2.20516e-05)
(1.08989 -0.110519 1.10198e-05)
(1.09579 -0.109813 2.32341e-06)
(1.1017 -0.108817 -2.48534e-06)
(1.1081 -0.107635 -4.46993e-06)
(1.11548 -0.106344 -5.22126e-06)
(1.00004 -0.0047476 1.18659e-06)
(1.00099 -0.0217931 5.44058e-08)
(1.00228 -0.0349464 -1.24416e-06)
(1.00402 -0.0485863 -1.51925e-06)
(1.00682 -0.0625889 2.34066e-06)
(1.01124 -0.0766126 1.70238e-05)
(1.01751 -0.0901092 4.69629e-05)
(1.02529 -0.102429 8.7961e-05)
(1.03408 -0.113019 0.000119124)
(1.04344 -0.12176 0.000118236)
(1.0531 -0.128725 0.00011255)
(1.06276 -0.133939 0.000101033)
(1.07236 -0.137503 6.94344e-05)
(1.08184 -0.139717 4.37602e-05)
(1.09098 -0.140836 2.54621e-05)
(1.09964 -0.141068 9.26024e-06)
(1.1079 -0.140629 -5.18908e-06)
(1.11604 -0.139708 -1.59709e-05)
(1.12445 -0.138453 -2.28344e-05)
(1.1335 -0.13697 -2.61092e-05)
(0.999987 -0.00453195 3.5838e-06)
(0.999684 -0.021238 8.15707e-07)
(0.999411 -0.0347011 -1.05938e-06)
(0.999305 -0.0491777 8.92214e-07)
(1.00009 -0.0646146 5.56808e-06)
(1.00255 -0.0808065 1.72894e-05)
(1.00722 -0.097366 4.2311e-05)
(1.01424 -0.113694 8.1836e-05)
(1.02317 -0.129067 0.000111796)
(1.0336 -0.142604 0.000130922)
(1.045 -0.153766 0.000134518)
(1.05688 -0.16241 0.000137834)
(1.06911 -0.168734 0.000159133)
(1.08141 -0.173105 0.000178905)
(1.09354 -0.175814 0.000174994)
(1.10523 -0.177153 0.000153801)
(1.11639 -0.177424 0.000128728)
(1.12717 -0.1769 0.000104564)
(1.13799 -0.17582 8.36674e-05)
(1.14902 -0.17437 6.68777e-05)
(0.999936 -0.0042269 -1.77504e-06)
(0.998376 -0.0202162 -4.9784e-07)
(0.996488 -0.0335083 4.37203e-07)
(0.994422 -0.0482784 4.79727e-07)
(0.992908 -0.064592 1.84819e-06)
(0.992806 -0.0824214 7.40951e-06)
(0.994857 -0.101535 2.03999e-05)
(0.999527 -0.121469 3.72042e-05)
(1.00702 -0.141411 5.32762e-05)
(1.01723 -0.160309 7.75363e-05)
(1.02973 -0.177274 0.000117701)
(1.04394 -0.191704 0.000175805)
(1.05922 -0.203276 0.000222641)
(1.07515 -0.211873 0.000226696)
(1.091 -0.217814 0.000210913)
(1.10625 -0.221503 0.000204229)
(1.12098 -0.22332 0.00018557)
(1.13523 -0.223647 0.000155786)
(1.14898 -0.222938 0.00012436)
(1.16213 -0.221637 9.74034e-05)
(1.00002 -0.00390935 -7.86502e-07)
(0.996987 -0.0189445 9.4131e-07)
(0.993572 -0.031644 2.31144e-06)
(0.989561 -0.0462095 6.77072e-07)
(0.98565 -0.0628793 -1.39775e-06)
(0.982708 -0.0817451 -1.44699e-06)
(0.981587 -0.10272 1.29322e-06)
(0.98303 -0.12546 5.40244e-06)
(0.987686 -0.149313 1.21405e-05)
(0.99598 -0.173359 2.35439e-05)
(1.00782 -0.196429 3.91686e-05)
(1.02273 -0.217402 5.08264e-05)
(1.04007 -0.23548 5.42859e-05)
(1.05906 -0.250256 5.58977e-05)
(1.07889 -0.261609 6.22213e-05)
(1.09886 -0.269691 6.96742e-05)
(1.11848 -0.274973 7.23225e-05)
(1.13726 -0.278043 7.04189e-05)
(1.15478 -0.279388 6.64042e-05)
(1.17102 -0.279258 6.2664e-05)
(0.999926 -0.00353873 -6.57402e-08)
(0.995965 -0.0176441 1.23117e-06)
(0.991203 -0.0295303 2.98587e-06)
(0.985323 -0.043484 1.64947e-06)
(0.978989 -0.059938 -1.0575e-06)
(0.973064 -0.0791836 -3.65055e-06)
(0.968471 -0.101296 -4.86828e-06)
(0.96612 -0.126087 -5.65941e-06)
(0.966904 -0.153115 -5.6157e-06)
(0.971633 -0.1817 -5.17515e-06)
(0.980855 -0.210839 -5.53496e-06)
(0.994591 -0.239171 -5.47658e-06)
(1.01234 -0.265303 -2.52089e-06)
(1.03326 -0.288198 3.41197e-06)
(1.05634 -0.307269 1.07094e-05)
(1.08055 -0.322272 1.86597e-05)
(1.10507 -0.333259 2.72836e-05)
(1.12919 -0.340592 3.64877e-05)
(1.15243 -0.344777 4.6262e-05)
(1.17442 -0.346339 5.68831e-05)
(0.999543 -0.00319013 1.32142e-07)
(0.995679 -0.0163923 -1.12229e-06)
(0.989844 -0.0274549 -8.66217e-07)
(0.9824 -0.0406235 -2.95292e-06)
(0.973919 -0.0564092 -5.51759e-06)
(0.965137 -0.0753138 -8.19298e-06)
(0.956937 -0.0976894 -1.02852e-05)
(0.950282 -0.123645 -1.23396e-05)
(0.946248 -0.153044 -1.49433e-05)
(0.945993 -0.185427 -1.85155e-05)
(0.950593 -0.219966 -2.18905e-05)
(0.960766 -0.255503 -2.25568e-05)
(0.976613 -0.290512 -1.99818e-05)
(0.997555 -0.323251 -1.4825e-05)
(1.02264 -0.352212 -7.04377e-06)
(1.05076 -0.376389 3.74637e-06)
(1.08072 -0.395323 1.77415e-05)
(1.11142 -0.409046 3.48723e-05)
(1.14195 -0.417972 5.5243e-05)
(1.17142 -0.4227 7.84688e-05)
(0.999527 -0.00287135 -3.93292e-07)
(0.995082 -0.014854 -3.78204e-08)
(0.9883 -0.0250284 -4.20299e-07)
(0.979538 -0.0372944 -2.18768e-06)
(0.969316 -0.0522572 -5.18487e-06)
(0.958294 -0.0705116 -8.20737e-06)
(0.947219 -0.0925808 -1.213e-05)
(0.936871 -0.118811 -1.65424e-05)
(0.928175 -0.149383 -2.12519e-05)
(0.922259 -0.184262 -2.5855e-05)
(0.920472 -0.223105 -2.87763e-05)
(0.924249 -0.26506 -2.86247e-05)
(0.934822 -0.308732 -2.51858e-05)
(0.95274 -0.352218 -1.87775e-05)
(0.977561 -0.393257 -8.98949e-06)
(1.00815 -0.42979 4.99772e-06)
(1.04314 -0.460341 2.38408e-05)
(1.0811 -0.484105 4.769e-05)
(1.12061 -0.500934 7.67653e-05)
(1.16007 -0.511129 0.000109639)
(0.999713 -0.00261702 -2.48119e-07)
(0.994432 -0.0134158 3.77433e-08)
(0.986857 -0.0226604 -4.30174e-08)
(0.976899 -0.0339277 -6.34516e-07)
(0.964968 -0.047878 -2.39871e-06)
(0.95161 -0.065173 -5.21912e-06)
(0.937546 -0.0864591 -8.81164e-06)
(0.923565 -0.112326 -1.2869e-05)
(0.910579 -0.143198 -1.7542e-05)
(0.899705 -0.179295 -2.20355e-05)
(0.892115 -0.220648 -2.60943e-05)
(0.88901 -0.267063 -2.84575e-05)
(0.891783 -0.317929 -2.73556e-05)
(0.902205 -0.371888 -2.09139e-05)
(0.921968 -0.426653 -8.03264e-06)
(0.951564 -0.479007 1.08595e-05)
(0.989822 -0.525831 3.51825e-05)
(1.03483 -0.564939 6.50035e-05)
(1.08487 -0.594864 0.000100904)
(1.1379 -0.614555 0.000140335)
(0.999693 -0.00236965 1.99289e-07)
(0.994042 -0.0121132 -4.39289e-07)
(0.985879 -0.0205163 -9.0482e-07)
(0.975033 -0.0308309 -1.88982e-06)
(0.961792 -0.043744 -3.58337e-06)
(0.946542 -0.0599607 -6.08553e-06)
(0.929802 -0.0802279 -9.34125e-06)
(0.912209 -0.10529 -1.30827e-05)
(0.894544 -0.135779 -1.71125e-05)
(0.877857 -0.172176 -2.08524e-05)
(0.863511 -0.214814 -2.34337e-05)
(0.853093 -0.263827 -2.3759e-05)
(0.848215 -0.319158 -2.12381e-05)
(0.850354 -0.380539 -1.5462e-05)
(0.861114 -0.447293 -4.94787e-06)
(0.882849 -0.517504 1.34038e-05)
(0.918014 -0.586825 4.17612e-05)
(0.966981 -0.649503 7.89411e-05)
(1.02831 -0.701243 0.000122525)
(1.10051 -0.738426 0.000171039)
(0.999698 -0.00215099 8.30251e-08)
(0.993729 -0.0109748 -4.52226e-07)
(0.985088 -0.0186297 -8.81481e-07)
(0.97349 -0.0280726 -1.6974e-06)
(0.959152 -0.0399801 -3.23268e-06)
(0.942349 -0.0550725 -5.63241e-06)
(0.923477 -0.0741618 -8.72184e-06)
(0.903036 -0.0980864 -1.2182e-05)
(0.881669 -0.127615 -1.57781e-05)
(0.860201 -0.163417 -1.90856e-05)
(0.839634 -0.206095 -2.14873e-05)
(0.821131 -0.256182 -2.2114e-05)
(0.806139 -0.314149 -1.96776e-05)
(0.796659 -0.380408 -1.2526e-05)
(0.795317 -0.455307 5.69156e-07)
(0.80503 -0.539124 1.93971e-05)
(0.829081 -0.631419 4.46065e-05)
(0.871687 -0.728332 8.20378e-05)
(0.938617 -0.820632 0.000135669)
(1.03433 -0.898353 0.000196949)
(0.999696 -0.00196162 -8.38927e-08)
(0.993465 -0.00995263 -2.16549e-07)
(0.984445 -0.0169242 -6.41539e-07)
(0.972261 -0.0255517 -1.38041e-06)
(0.95706 -0.0365037 -2.72803e-06)
(0.939019 -0.0505029 -4.83453e-06)
(0.9184 -0.0683791 -7.58618e-06)
(0.895552 -0.0910124 -1.07862e-05)
(0.870934 -0.119255 -1.41916e-05)
(0.845176 -0.153905 -1.73867e-05)
(0.819101 -0.195718 -1.95714e-05)
(0.793685 -0.245413 -1.97165e-05)
(0.769987 -0.303732 -1.67956e-05)
(0.749088 -0.371616 -1.00627e-05)
(0.732346 -0.450516 1.38845e-06)
(0.722331 -0.542673 1.96976e-05)
(0.723947 -0.651322 4.71064e-05)
(0.744597 -0.780937 8.34302e-05)
(0.795298 -0.933151 0.000126222)
(0.897109 -1.08964 0.000186594)
(0.99969 -0.00178811 -3.44719e-08)
(0.993267 -0.00904607 -3.37742e-07)
(0.98396 -0.0154041 -8.07119e-07)
(0.971315 -0.0232984 -1.58563e-06)
(0.955423 -0.0333737 -2.94905e-06)
(0.936369 -0.0463353 -5.03719e-06)
(0.914298 -0.0630023 -7.6798e-06)
(0.889424 -0.0842674 -1.06171e-05)
(0.862077 -0.111032 -1.35548e-05)
(0.832736 -0.144166 -1.60196e-05)
(0.802002 -0.184498 -1.73872e-05)
(0.770525 -0.232844 -1.70157e-05)
(0.738903 -0.290069 -1.4207e-05)
(0.707663 -0.357243 -7.95458e-06)
(0.677316 -0.435864 3.12979e-06)
(0.648206 -0.528415 1.98009e-05)
(0.620346 -0.64015 4.18233e-05)
(0.59444 -0.782401 7.23044e-05)
(0.581204 -0.982796 0.000111682)
(0.537381 -1.20032 -5.22311e-05)
(0.998488 0.00603712 -1.73654e-06)
(0.997316 0.00438731 -3.49025e-06)
(0.996607 0.00333195 -1.10515e-05)
(0.996278 0.00270703 -2.10158e-05)
(0.996198 0.0023429 -3.51068e-05)
(0.996265 0.00211564 -5.58467e-05)
(0.9964 0.00194303 -8.03978e-05)
(0.996522 0.00176108 -9.34141e-05)
(0.996614 0.00152215 -7.94099e-05)
(0.996731 0.001214 -3.31953e-05)
(0.996927 0.000857064 3.12155e-05)
(0.997209 0.000482218 8.4291e-05)
(0.997546 0.000113519 0.000102671)
(0.997905 -0.000238339 7.93938e-05)
(0.998273 -0.000569664 2.6737e-05)
(0.998654 -0.000877488 -3.45483e-05)
(0.999053 -0.0011562 -8.7023e-05)
(0.999485 -0.00139839 -0.000116909)
(0.999972 -0.00159359 -0.000120246)
(1.00056 -0.00168002 -0.000101572)
(1.00007 -0.000854489 -5.06172e-06)
(1.00147 -0.0039529 -1.21511e-05)
(1.00321 -0.00594519 6.82937e-06)
(1.00541 -0.00761427 2.32125e-05)
(1.00775 -0.00900594 2.0423e-06)
(1.00997 -0.0101138 -5.64369e-05)
(1.01192 -0.0109236 -0.000118284)
(1.01354 -0.0114774 -0.000151153)
(1.01485 -0.0118539 -0.000137516)
(1.01591 -0.0121056 -8.81488e-05)
(1.01682 -0.0122545 -2.48033e-05)
(1.01762 -0.0123126 3.78509e-05)
(1.01835 -0.0122919 9.23837e-05)
(1.01904 -0.012205 0.000132827)
(1.01975 -0.0120681 0.000156654)
(1.02053 -0.0119036 0.000166793)
(1.02147 -0.0117349 0.000165855)
(1.02272 -0.0115807 0.000155495)
(1.0245 -0.0114537 0.000137819)
(1.02708 -0.0113614 0.000116677)
(1.00008 -0.00154141 4.53068e-06)
(1.00161 -0.00685868 2.57705e-05)
(1.00361 -0.0103032 1.84627e-05)
(1.00615 -0.0132354 1.46019e-05)
(1.00895 -0.0155994 -1.26387e-05)
(1.01175 -0.0174546 -8.80247e-05)
(1.01436 -0.0188967 -0.000191197)
(1.01664 -0.0199842 -0.000269256)
(1.01854 -0.0207413 -0.000272879)
(1.02014 -0.0212241 -0.000214221)
(1.02153 -0.0215192 -0.000132897)
(1.02274 -0.0217083 -5.01653e-05)
(1.02381 -0.0218526 2.92499e-05)
(1.02476 -0.0219918 0.000102012)
(1.02561 -0.0221441 0.000162987)
(1.02644 -0.0223068 0.000208189)
(1.02741 -0.022462 0.000236618)
(1.02875 -0.0225831 0.000250382)
(1.03082 -0.0226367 0.000251707)
(1.03395 -0.0225854 0.000241979)
(1.00009 -0.00266128 3.87281e-05)
(1.00187 -0.0114254 0.000118517)
(1.00425 -0.0168 2.00579e-06)
(1.00741 -0.02119 -0.000163714)
(1.01095 -0.0246635 -0.000226325)
(1.01452 -0.0273165 -0.000185312)
(1.01789 -0.0293019 -0.000122316)
(1.02098 -0.0307674 -7.22161e-05)
(1.02375 -0.0318349 -3.70575e-05)
(1.02619 -0.0325782 -1.24532e-05)
(1.0283 -0.0330354 1.63687e-06)
(1.0301 -0.0332529 3.9133e-06)
(1.03161 -0.0332912 -2.30196e-06)
(1.03292 -0.0332074 -1.09016e-05)