/*--------------------------------*- C++ -*----------------------------------*\
| =========                 |                                                 |
| \\      /  F ield         | OpenFOAM: The Open Source CFD Toolbox           |
|  \\    /   O peration     | Version:  4.x                                   |
|   \\  /    A nd           | Web:      www.OpenFOAM.org                      |
|    \\/     M anipulation  |                                                 |
\*---------------------------------------------------------------------------*/
FoamFile
{
    version     2.0;
    format      ascii;
    class       volScalarField;
    location    "90";
    object      epsilon;
}
// * * * * * * * * * * * * * * * * * * * * * * * * * * * * * * * * * * * * * //

dimensions      [0 2 -3 0 0 0 0];

internalField   nonuniform List<scalar> 
237650
(
1.5642
1.56908
1.57342
1.57715
1.58023
1.5826
1.58423
1.5851
1.58518
1.5845
1.58302
1.58079
1.57783
1.5742
1.56992
1.56507
1.55972
1.55395
1.54784
1.54149
1.53501
1.52848
1.52202
1.51574
1.50973
1.50411
1.49896
1.49437
1.49041
1.48717
1.48469
1.48302
1.48219
1.4822
1.48304
1.48472
1.48718
1.49041
1.49434
1.49888
1.50397
1.50951
1.51543
1.52161
1.52796
1.53439
1.54079
1.54706
1.55311
1.55885
0.55801
0.559737
0.561264
0.562569
0.563633
0.564441
0.564981
0.565243
0.565223
0.564928
0.564349
0.563499
0.56239
0.561044
0.559471
0.557697
0.555749
0.553656
0.55145
0.549164
0.546835
0.544499
0.542195
0.539958
0.537828
0.535839
0.534024
0.532415
0.531038
0.529917
0.529072
0.528517
0.528262
0.52831
0.528657
0.529301
0.530223
0.53142
0.532862
0.534523
0.536374
0.538387
0.540527
0.54276
0.54505
0.547361
0.549657
0.551903
0.554065
0.55611
0.348175
0.349194
0.35009
0.350851
0.351463
0.351919
0.352212
0.352338
0.352293
0.352083
0.351702
0.35116
0.350464
0.349627
0.348658
0.34757
0.346382
0.34511
0.343775
0.342396
0.340995
0.339594
0.338216
0.336883
0.335617
0.334439
0.333369
0.332425
0.331623
0.330976
0.330497
0.330193
0.330069
0.330128
0.330366
0.330782
0.331364
0.332109
0.333001
0.334021
0.335153
0.33638
0.33768
0.339033
0.340417
0.34181
0.34319
0.344536
0.345829
0.347047
0.248116
0.248797
0.249392
0.249894
0.250294
0.250588
0.250771
0.250839
0.250792
0.250633
0.250359
0.249977
0.249491
0.248911
0.248242
0.247496
0.246682
0.245815
0.244906
0.243969
0.24302
0.242073
0.241144
0.240247
0.239398
0.238609
0.237896
0.237269
0.236739
0.236316
0.236007
0.235816
0.235748
0.235804
0.235981
0.236278
0.236687
0.237205
0.237821
0.238523
0.239299
0.240138
0.241025
0.241946
0.242886
0.24383
0.244764
0.245673
0.246543
0.247362
0.183449
0.183941
0.184371
0.184732
0.18502
0.185229
0.185357
0.185402
0.185363
0.185243
0.185039
0.184756
0.184398
0.183972
0.183482
0.182936
0.182341
0.181708
0.181045
0.180363
0.179672
0.178984
0.178309
0.177658
0.177043
0.176472
0.175957
0.175505
0.175124
0.17482
0.1746
0.174467
0.174422
0.174468
0.174601
0.174822
0.175123
0.175505
0.175956
0.17647
0.177037
0.17765
0.178297
0.178968
0.179652
0.180339
0.181018
0.181678
0.182309
0.182903
0.140882
0.141263
0.141596
0.141876
0.142098
0.14226
0.142359
0.142394
0.142364
0.14227
0.142112
0.141892
0.141614
0.141284
0.140904
0.14048
0.140019
0.139528
0.139014
0.138485
0.137949
0.137416
0.136892
0.136388
0.135911
0.135469
0.135069
0.134719
0.134425
0.13419
0.13402
0.133917
0.133883
0.133919
0.134023
0.134195
0.134429
0.134725
0.135076
0.135474
0.135914
0.136389
0.13689
0.137411
0.137941
0.138473
0.138999
0.13951
0.14
0.140459
0.112856
0.113166
0.113437
0.113665
0.113847
0.113979
0.114061
0.114089
0.114066
0.113991
0.113863
0.113685
0.11346
0.113192
0.112883
0.112539
0.112164
0.111765
0.111347
0.110916
0.11048
0.110046
0.10962
0.109209
0.10882
0.10846
0.108135
0.107849
0.107609
0.107418
0.107278
0.107194
0.107166
0.107195
0.107279
0.107418
0.107608
0.107849
0.108134
0.108457
0.108815
0.109201
0.109609
0.110031
0.110463
0.110895
0.111323
0.111739
0.112137
0.112511
0.0938324
0.0940939
0.0943227
0.0945153
0.0946688
0.0947811
0.0948504
0.0948755
0.0948566
0.0947942
0.0946872
0.0945385
0.0943496
0.0941245
0.0938653
0.0935758
0.0932606
0.0929244
0.0925724
0.0922099
0.0918427
0.0914766
0.0911174
0.090771
0.0904431
0.0901392
0.0898644
0.0896234
0.0894202
0.0892583
0.0891405
0.089069
0.0890448
0.0890683
0.0891387
0.0892553
0.0894149
0.0896172
0.0898568
0.0901292
0.0904302
0.0907549
0.091098
0.0914538
0.0918168
0.0921812
0.0925413
0.0928916
0.0932268
0.0935419
0.0803585
0.0805844
0.0807821
0.0809487
0.0810816
0.081179
0.0812393
0.0812616
0.0812459
0.0811927
0.081101
0.0809732
0.0808108
0.080617
0.0803937
0.0801442
0.0798724
0.0795825
0.0792786
0.0789657
0.0786487
0.0783325
0.0780222
0.0777228
0.0774393
0.0771764
0.0769387
0.0767302
0.0765542
0.0764141
0.0763119
0.0762497
0.0762284
0.0762483
0.0763088
0.0764092
0.0765465
0.0767212
0.0769278
0.0771628
0.0774224
0.0777026
0.0779985
0.0783056
0.0786188
0.0789332
0.0792439
0.0795462
0.0798356
0.0801077
0.0703884
0.0705869
0.0707607
0.0709072
0.0710242
0.0711101
0.0711634
0.0711834
0.0711701
0.0711237
0.0710436
0.0709319
0.0707897
0.0706199
0.0704241
0.0702052
0.0699667
0.0697122
0.0694454
0.0691706
0.068892
0.0686141
0.0683413
0.068078
0.0678286
0.0675974
0.0673882
0.0672046
0.0670496
0.0669262
0.0668361
0.0667812
0.0667621
0.0667794
0.0668324
0.0669204
0.0670407
0.0671943
0.0673757
0.0675821
0.0678101
0.0680561
0.068316
0.0685856
0.0688606
0.0691366
0.0694095
0.069675
0.0699291
0.0701681
0.0627162
0.0628928
0.0630474
0.0631778
0.063282
0.0633586
0.0634063
0.0634244
0.063413
0.0633721
0.0633013
0.0632023
0.0630763
0.0629256
0.0627518
0.0625574
0.0623455
0.0621194
0.0618822
0.0616378
0.06139
0.0611428
0.0609
0.0606656
0.0604435
0.0602376
0.0600512
0.0598876
0.0597494
0.0596393
0.0595589
0.0595099
0.0594927
0.0595079
0.0595549
0.0596331
0.0597399
0.0598765
0.0600379
0.0602213
0.060424
0.0606428
0.0608738
0.0611135
0.0613579
0.0616034
0.0618459
0.0620819
0.0623078
0.0625203
0.0566111
0.0567695
0.0569082
0.0570253
0.057119
0.0571879
0.057231
0.0572476
0.0572377
0.0572014
0.0571383
0.0570499
0.0569373
0.0568025
0.0566469
0.0564729
0.0562831
0.0560804
0.0558679
0.0556487
0.0554264
0.0552046
0.0549866
0.0547762
0.0545767
0.0543917
0.0542242
0.0540771
0.0539529
0.0538538
0.0537814
0.0537372
0.0537214
0.0537349
0.053777
0.0538469
0.0539428
0.0540652
0.0542098
0.0543742
0.054556
0.0547522
0.0549593
0.0551742
0.0553933
0.0556133
0.0558308
0.0560423
0.0562448
0.0564354
0.0516138
0.0517568
0.051882
0.0519878
0.0520725
0.052135
0.0521742
0.0521895
0.052181
0.0521486
0.0520922
0.052013
0.0519119
0.0517907
0.0516507
0.0514941
0.0513232
0.0511407
0.0509491
0.0507515
0.0505511
0.0503509
0.0501542
0.0499642
0.049784
0.0496168
0.0494653
0.0493324
0.0492199
0.0491302
0.0490645
0.0490243
0.0490098
0.0490219
0.0490596
0.0491225
0.0492089
0.049319
0.0494492
0.0495974
0.0497612
0.049938
0.0501246
0.0503183
0.0505159
0.0507142
0.0509102
0.0511009
0.0512835
0.0514553
0.0474265
0.047556
0.0476695
0.0477655
0.0478424
0.0478993
0.0479352
0.0479496
0.0479423
0.0479136
0.0478631
0.047792
0.0477011
0.0475919
0.0474657
0.0473244
0.0471701
0.0470053
0.0468321
0.0466534
0.0464721
0.0462909
0.0461128
0.0459406
0.0457773
0.0456257
0.0454882
0.0453674
0.0452652
0.0451836
0.0451238
0.0450871
0.045074
0.0450845
0.0451183
0.0451749
0.045253
0.0453521
0.0454697
0.0456036
0.0457515
0.045911
0.0460797
0.0462548
0.0464333
0.0466127
0.0467899
0.0469624
0.0471276
0.047283
0.0438483
0.0439658
0.0440689
0.0441562
0.0442263
0.0442783
0.0443114
0.044325
0.0443191
0.0442937
0.0442487
0.0441849
0.0441033
0.044005
0.0438913
0.0437638
0.0436244
0.0434752
0.0433185
0.0431568
0.0429926
0.0428285
0.0426669
0.0425107
0.0423624
0.0422246
0.0420995
0.0419897
0.0418966
0.0418223
0.0417679
0.0417342
0.0417218
0.0417308
0.041761
0.0418118
0.0418822
0.0419716
0.0420777
0.0421986
0.0423323
0.0424765
0.042629
0.0427872
0.0429488
0.043111
0.0432715
0.0434277
0.0435773
0.0437182
0.0407386
0.0408452
0.0409389
0.0410183
0.0410824
0.04113
0.0411606
0.0411737
0.0411691
0.041147
0.041107
0.0410501
0.040977
0.0408887
0.0407865
0.0406717
0.040546
0.0404112
0.0402696
0.0401233
0.0399747
0.0398261
0.0396797
0.039538
0.0394032
0.0392781
0.0391644
0.0390644
0.0389798
0.0389119
0.038862
0.0388309
0.0388191
0.0388266
0.0388533
0.0388988
0.038962
0.0390423
0.0391379
0.0392469
0.0393675
0.0394977
0.0396354
0.0397784
0.0399243
0.040071
0.0402161
0.0403574
0.0404929
0.0406206
0.0379957
0.0380924
0.0381774
0.0382497
0.0383082
0.038352
0.0383804
0.0383931
0.0383899
0.0383708
0.0383357
0.0382853
0.0382202
0.0381413
0.0380498
0.0379468
0.0378339
0.0377127
0.0375852
0.0374533
0.0373189
0.0371846
0.0370522
0.0369238
0.0368018
0.0366883
0.0365852
0.0364943
0.0364172
0.0363551
0.0363093
0.0362804
0.0362689
0.036275
0.0362983
0.0363387
0.0363951
0.036467
0.0365527
0.0366505
0.0367589
0.0368761
0.037
0.0371288
0.0372603
0.0373925
0.0375234
0.037651
0.0377734
0.0378889
0.0355438
0.0356312
0.0357083
0.0357739
0.0358273
0.0358676
0.0358941
0.0359065
0.0359047
0.0358887
0.0358582
0.035814
0.0357565
0.0356866
0.0356053
0.0355135
0.0354127
0.0353042
0.03519
0.0350716
0.0349509
0.0348299
0.0347106
0.0345948
0.0344848
0.0343821
0.0342888
0.0342062
0.034136
0.0340793
0.0340372
0.0340102
0.033999
0.0340035
0.0340236
0.034059
0.034109
0.0341728
0.0342491
0.0343364
0.0344333
0.0345381
0.0346491
0.0347644
0.0348824
0.035001
0.0351186
0.0352333
0.0353435
0.0354475
0.0333259
0.0334044
0.033474
0.0335334
0.033582
0.033619
0.0336439
0.0336562
0.0336558
0.0336428
0.0336169
0.0335786
0.0335285
0.0334673
0.0333956
0.0333146
0.0332253
0.0331291
0.0330275
0.032922
0.0328143
0.0327061
0.0325992
0.0324953
0.0323965
0.0323041
0.0322199
0.0321452
0.0320815
0.0320298
0.031991
0.0319658
0.0319547
0.0319576
0.0319745
0.0320051
0.0320488
0.0321049
0.0321721
0.0322494
0.0323352
0.0324282
0.0325268
0.0326294
0.0327345
0.0328402
0.0329451
0.0330476
0.0331461
0.0332394
0.031297
0.0313672
0.0314296
0.0314832
0.0315273
0.0315612
0.0315845
0.0315968
0.0315979
0.0315878
0.0315664
0.031534
0.031491
0.0314381
0.0313759
0.0313052
0.031227
0.0311426
0.0310532
0.0309601
0.0308649
0.030769
0.030674
0.0305816
0.0304934
0.0304108
0.0303352
0.0302681
0.0302105
0.0301635
0.0301279
0.0301043
0.0300931
0.0300945
0.0301082
0.0301341
0.0301717
0.0302203
0.0302788
0.0303463
0.0304215
0.0305032
0.0305899
0.0306802
0.0307728
0.0308662
0.0309589
0.0310497
0.0311371
0.03122
0.0294226
0.0294849
0.0295405
0.0295886
0.0296285
0.0296596
0.0296816
0.0296941
0.0296968
0.0296897
0.0296728
0.0296461
0.0296102
0.0295655
0.0295124
0.0294518
0.0293845
0.0293115
0.0292338
0.0291528
0.0290695
0.0289855
0.028902
0.0288205
0.0287425
0.0286692
0.028602
0.0285419
0.0284901
0.0284475
0.0284148
0.0283925
0.0283812
0.0283808
0.0283913
0.0284125
0.028444
0.0284852
0.0285352
0.0285932
0.028658
0.0287285
0.0288037
0.0288822
0.0289628
0.0290442
0.0291253
0.0292048
0.0292816
0.0293545
0.0276757
0.0277303
0.0277793
0.027822
0.0278579
0.0278864
0.0279071
0.0279197
0.027924
0.0279198
0.0279072
0.0278862
0.0278571
0.0278203
0.0277761
0.0277253
0.0276685
0.0276065
0.0275402
0.0274708
0.0273992
0.0273266
0.0272542
0.0271832
0.0271151
0.0270508
0.0269915
0.0269382
0.026892
0.0268536
0.0268237
0.0268028
0.0267912
0.0267892
0.0267965
0.0268132
0.0268389
0.0268729
0.0269147
0.0269635
0.0270183
0.0270782
0.0271421
0.0272092
0.0272782
0.0273481
0.0274179
0.0274864
0.0275529
0.0276163
0.0260315
0.0260786
0.0261213
0.0261589
0.0261909
0.0262168
0.0262362
0.026249
0.0262548
0.0262535
0.026245
0.0262295
0.026207
0.0261778
0.0261423
0.026101
0.0260543
0.0260029
0.0259477
0.0258895
0.0258291
0.0257675
0.0257058
0.025645
0.0255863
0.0255307
0.025479
0.0254324
0.0253915
0.0253571
0.0253299
0.0253102
0.0252985
0.0252948
0.0252992
0.0253115
0.0253315
0.0253587
0.0253926
0.0254325
0.0254776
0.0255272
0.0255804
0.0256363
0.0256942
0.0257529
0.0258118
0.0258698
0.0259264
0.0259805
0.0244712
0.0245112
0.0245477
0.0245804
0.0246086
0.024632
0.0246503
0.0246632
0.0246705
0.024672
0.0246676
0.0246573
0.0246412
0.0246194
0.0245923
0.02456
0.0245231
0.024482
0.0244374
0.02439
0.0243404
0.0242894
0.0242379
0.0241868
0.0241372
0.0240899
0.0240456
0.0240052
0.0239694
0.0239389
0.0239142
0.0238958
0.0238839
0.0238787
0.0238802
0.0238883
0.0239029
0.0239235
0.0239498
0.0239812
0.024017
0.0240567
0.0240995
0.0241448
0.0241919
0.0242399
0.0242882
0.0243362
0.0243831
0.0244283
0.0229809
0.0230141
0.0230448
0.0230726
0.0230973
0.0231183
0.0231355
0.0231486
0.0231573
0.0231614
0.0231609
0.0231557
0.0231457
0.023131
0.0231119
0.0230883
0.0230607
0.0230294
0.022995
0.0229578
0.0229185
0.0228776
0.0228358
0.0227941
0.0227531
0.0227136
0.0226763
0.0226419
0.022611
0.0225842
0.022562
0.0225446
0.0225326
0.0225259
0.0225247
0.0225288
0.0225383
0.0225527
0.0225718
0.0225951
0.0226221
0.0226523
0.0226852
0.0227203
0.0227571
0.0227949
0.0228332
0.0228714
0.0229092
0.0229458
0.02155
0.0215766
0.0216017
0.021625
0.0216462
0.021665
0.0216812
0.0216944
0.0217044
0.0217111
0.0217142
0.0217138
0.0217096
0.0217017
0.0216901
0.0216747
0.0216559
0.021634
0.0216091
0.0215817
0.0215521
0.0215209
0.0214886
0.0214558
0.0214232
0.0213913
0.0213607
0.021332
0.0213057
0.0212825
0.0212625
0.0212463
0.021234
0.0212259
0.021222
0.0212224
0.0212268
0.0212352
0.0212473
0.0212628
0.0212814
0.0213027
0.0213263
0.0213518
0.0213788
0.0214069
0.0214357
0.0214647
0.0214937
0.0215222
0.0201698
0.0201903
0.0202102
0.0202292
0.0202471
0.0202638
0.0202788
0.0202921
0.0203034
0.0203124
0.0203189
0.0203229
0.0203242
0.0203226
0.0203181
0.0203106
0.0203003
0.0202872
0.0202715
0.0202535
0.0202333
0.0202114
0.020188
0.0201639
0.0201392
0.0201145
0.0200904
0.0200672
0.0200454
0.0200255
0.0200078
0.0199926
0.0199801
0.0199706
0.0199642
0.0199608
0.0199605
0.0199631
0.0199686
0.0199766
0.0199871
0.0199998
0.0200145
0.0200308
0.0200485
0.0200674
0.0200871
0.0201074
0.0201281
0.020149
0.0188331
0.0188477
0.0188626
0.0188776
0.0188925
0.0189071
0.0189211
0.0189344
0.0189468
0.0189579
0.0189677
0.0189759
0.0189823
0.0189866
0.0189889
0.0189888
0.0189865
0.0189818
0.0189748
0.0189656
0.0189542
0.0189411
0.0189263
0.0189102
0.0188931
0.0188754
0.0188573
0.0188394
0.0188219
0.0188052
0.0187896
0.0187753
0.0187627
0.0187519
0.0187431
0.0187363
0.0187314
0.0187286
0.0187278
0.0187288
0.0187317
0.0187364
0.0187426
0.0187502
0.0187591
0.0187691
0.0187803
0.0187924
0.0188053
0.0188189
0.0175343
0.0175435
0.0175538
0.0175651
0.0175771
0.0175898
0.0176028
0.017616
0.0176292
0.0176422
0.0176549
0.017667
0.017678
0.0176879
0.0176962
0.017703
0.017708
0.0177111
0.0177122
0.0177112
0.0177081
0.017703
0.0176961
0.0176876
0.0176775
0.0176662
0.0176539
0.0176408
0.0176273
0.0176136
0.0176001
0.0175868
0.0175741
0.0175622
0.0175512
0.0175412
0.0175323
0.0175245
0.0175179
0.0175125
0.0175084
0.0175055
0.0175039
0.0175034
0.0175041
0.0175061
0.0175093
0.0175138
0.0175195
0.0175263
0.0162699
0.0162741
0.01628
0.0162877
0.016297
0.0163077
0.0163197
0.0163329
0.016347
0.0163618
0.016377
0.0163924
0.0164075
0.016422
0.0164357
0.0164483
0.0164598
0.0164699
0.0164783
0.0164847
0.016489
0.0164913
0.0164917
0.01649
0.0164864
0.016481
0.0164739
0.0164654
0.0164556
0.0164448
0.0164332
0.0164209
0.0164082
0.0163954
0.0163825
0.0163697
0.0163571
0.0163449
0.0163331
0.0163219
0.0163113
0.0163017
0.016293
0.0162852
0.0162786
0.0162732
0.0162694
0.0162672
0.0162665
0.0162674
0.0150344
0.0150339
0.0150358
0.0150401
0.0150467
0.0150557
0.0150667
0.0150798
0.0150946
0.015111
0.0151285
0.015147
0.0151659
0.015185
0.0152038
0.0152221
0.0152395
0.0152555
0.01527
0.0152828
0.0152935
0.0153021
0.0153088
0.0153133
0.0153155
0.0153154
0.0153131
0.0153087
0.0153023
0.0152941
0.0152843
0.015273
0.0152604
0.0152469
0.0152324
0.0152172
0.0152015
0.0151853
0.015169
0.0151527
0.0151366
0.0151212
0.0151065
0.0150926
0.0150797
0.015068
0.0150576
0.0150489
0.0150421
0.0150372
0.0138242
0.0138194
0.0138175
0.0138186
0.0138228
0.01383
0.0138401
0.013853
0.0138684
0.0138861
0.0139057
0.013927
0.0139494
0.0139726
0.0139961
0.0140196
0.0140425
0.0140642
0.0140846
0.0141034
0.0141202
0.0141348
0.0141471
0.0141568
0.0141639
0.0141683
0.01417
0.0141691
0.0141656
0.0141598
0.0141516
0.0141413
0.014129
0.0141149
0.0140993
0.0140823
0.0140641
0.0140449
0.0140249
0.0140044
0.0139836
0.0139628
0.0139424
0.0139225
0.0139036
0.0138858
0.0138694
0.0138548
0.0138422
0.0138319
0.0126384
0.0126297
0.0126245
0.0126228
0.0126248
0.0126304
0.0126395
0.0126521
0.0126679
0.0126866
0.0127079
0.0127314
0.0127567
0.0127833
0.0128107
0.0128384
0.012866
0.0128928
0.0129186
0.0129428
0.0129652
0.0129852
0.0130028
0.0130176
0.0130295
0.0130383
0.0130438
0.0130462
0.0130456
0.013042
0.0130354
0.0130261
0.0130141
0.0129996
0.0129829
0.0129642
0.0129436
0.0129214
0.0128979
0.0128733
0.0128481
0.0128225
0.0127969
0.0127717
0.0127473
0.0127241
0.0127024
0.0126826
0.0126651
0.0126503
0.0114784
0.0114665
0.0114584
0.0114544
0.0114545
0.0114586
0.0114668
0.011479
0.0114949
0.0115143
0.0115368
0.0115621
0.0115896
0.0116189
0.0116494
0.0116807
0.011712
0.011743
0.011773
0.0118017
0.0118285
0.011853
0.0118749
0.0118939
0.0119098
0.0119223
0.0119314
0.0119369
0.0119389
0.0119373
0.0119322
0.0119238
0.0119121
0.0118974
0.0118799
0.0118597
0.0118372
0.0118125
0.0117861
0.0117584
0.0117295
0.0117001
0.0116704
0.0116409
0.0116121
0.0115844
0.0115583
0.0115343
0.0115127
0.0114939
0.0103486
0.010334
0.0103236
0.0103175
0.0103158
0.0103187
0.010326
0.0103378
0.0103537
0.0103734
0.0103968
0.0104232
0.0104523
0.0104836
0.0105164
0.0105502
0.0105844
0.0106185
0.0106518
0.0106838
0.010714
0.010742
0.0107673
0.0107897
0.0108087
0.0108243
0.0108362
0.0108442
0.0108483
0.0108484
0.0108447
0.0108372
0.010826
0.0108112
0.0107932
0.0107721
0.0107482
0.0107218
0.0106933
0.0106631
0.0106316
0.0105993
0.0105665
0.0105337
0.0105016
0.0104705
0.010441
0.0104136
0.0103888
0.0103669
0.00925202
0.00923539
0.00922304
0.00921523
0.00921216
0.00921386
0.00922034
0.00923154
0.00924724
0.00926715
0.00929092
0.00931814
0.00934832
0.00938092
0.00941535
0.00945104
0.00948736
0.0095237
0.00955946
0.00959406
0.00962696
0.00965766
0.00968572
0.00971072
0.00973233
0.00975028
0.00976427
0.00977418
0.00977996
0.00978154
0.00977897
0.00977227
0.00976157
0.00974702
0.00972884
0.00970726
0.00968258
0.00965515
0.00962521
0.00959329
0.0095598
0.00952522
0.00949006
0.00945485
0.00942013
0.00938644
0.00935433
0.0093243
0.00929692
0.00927269
0.00819742
0.00817945
0.00816584
0.00815688
0.00815278
0.0081536
0.00815931
0.00816992
0.00818519
0.00820485
0.00822856
0.00825589
0.00828637
0.00831947
0.00835458
0.00839113
0.00842847
0.008466
0.00850306
0.00853907
0.00857348
0.00860577
0.00863545
0.00866209
0.00868534
0.00870486
0.0087204
0.00873178
0.00873887
0.00874161
0.00874002
0.00873412
0.00872398
0.00870977
0.0086917
0.00867001
0.00864501
0.00861703
0.00858642
0.00855365
0.00851915
0.00848344
0.00844704
0.0084105
0.00837437
0.00833922
0.00830561
0.00827407
0.00824518
0.00821949
0.00719617
0.00717762
0.00716342
0.00715384
0.0071491
0.00714928
0.00715433
0.0071643
0.00717896
0.00719803
0.00722121
0.00724806
0.00727812
0.00731089
0.00734577
0.00738217
0.00741947
0.00745705
0.00749428
0.00753057
0.00756537
0.00759813
0.00762837
0.00765566
0.00767961
0.00769989
0.00771622
0.00772841
0.0077363
0.00773982
0.00773894
0.00773372
0.00772418
0.00771049
0.00769287
0.00767155
0.00764681
0.00761901
0.00758853
0.00755579
0.00752127
0.00748546
0.00744891
0.00741214
0.00737574
0.00734026
0.00730626
0.00727431
0.00724497
0.00721877
0.00626145
0.00624307
0.00622891
0.00621922
0.00621423
0.00621402
0.00621854
0.00622786
0.00624174
0.00625994
0.00628218
0.00630802
0.00633703
0.0063687
0.00640249
0.0064378
0.00647406
0.00651065
0.00654699
0.00658247
0.00661656
0.00664874
0.00667852
0.00670548
0.00672923
0.00674943
0.00676583
0.00677819
0.00678637
0.00679027
0.00678986
0.00678521
0.00677629
0.00676329
0.00674641
0.00672587
0.00670195
0.00667499
0.00664537
0.00661352
0.00657988
0.00654496
0.00650928
0.00647337
0.00643776
0.00640301
0.00636969
0.00633836
0.00630954
0.00628376
0.00540805
0.00539051
0.00537696
0.00536765
0.00536278
0.00536243
0.00536656
0.00537525
0.00538826
0.00540537
0.00542632
0.0054507
0.00547809
0.00550802
0.00553998
0.00557341
0.00560775
0.00564245
0.00567693
0.00571065
0.00574307
0.00577371
0.00580211
0.00582785
0.00585057
0.00586995
0.00588572
0.00589768
0.00590566
0.00590958
0.00590939
0.00590517
0.00589686
0.00588467
0.00586876
0.00584936
0.00582672
0.00580117
0.00577308
0.00574285
0.00571091
0.00567772
0.00564381
0.00560967
0.00557581
0.00554276
0.00551109
0.00548129
0.00545388
0.00542932
0.00465198
0.00463585
0.00462342
0.00461492
0.00461051
0.00461029
0.0046142
0.00462232
0.00463443
0.00465032
0.00466975
0.00469234
0.00471769
0.00474538
0.00477492
0.00480582
0.00483756
0.00486962
0.00490148
0.00493262
0.00496257
0.00499087
0.0050171
0.00504087
0.00506185
0.00507974
0.0050943
0.00510533
0.00511268
0.00511626
0.00511605
0.0051121
0.00510437
0.00509303
0.00507825
0.00506023
0.00503922
0.00501552
0.00498948
0.00496145
0.00493185
0.00490113
0.00486973
0.00483813
0.00480682
0.00477627
0.004747
0.00471949
0.0046942
0.00467156
0.00401235
0.00399811
0.00398724
0.00397992
0.00397631
0.00397647
0.00398035
0.00398802
0.00399927
0.0040139
0.0040317
0.00405231
0.00407536
0.00410047
0.00412721
0.00415513
0.00418377
0.00421264
0.00424129
0.00426926
0.00429612
0.00432145
0.00434489
0.00436609
0.00438475
0.00440062
0.00441346
0.00442312
0.00442945
0.00443239
0.0044319
0.00442805
0.00442079
0.0044103
0.00439672
0.00438023
0.00436105
0.00433948
0.00431583
0.00429042
0.00426363
0.00423586
0.00420752
0.00417904
0.00415084
0.00412339
0.00409713
0.00407249
0.0040499
0.00402973
0.0035159
0.00350395
0.00349501
0.00348922
0.00348671
0.00348752
0.00349161
0.00349901
0.00350951
0.00352295
0.00353912
0.00355769
0.00357833
0.0036007
0.00362442
0.00364909
0.00367429
0.00369962
0.00372467
0.00374905
0.00377238
0.0037943
0.00381449
0.00383267
0.00384857
0.00386198
0.00387272
0.00388063
0.00388561
0.0038876
0.0038866
0.00388264
0.00387571
0.00386598
0.00385356
0.00383861
0.00382133
0.00380202
0.00378093
0.00375836
0.00373465
0.00371013
0.00368519
0.00366018
0.0036355
0.00361155
0.00358871
0.00356739
0.00354792
0.00353065
0.00320551
0.00319627
0.00318965
0.00318578
0.00318473
0.0031865
0.0031911
0.00319845
0.00320841
0.00322079
0.00323541
0.00325196
0.00327015
0.00328969
0.00331025
0.00333148
0.00335304
0.00337457
0.00339573
0.0034162
0.00343566
0.00345382
0.0034704
0.00348517
0.00349794
0.00350854
0.00351682
0.00352264
0.00352594
0.00352669
0.00352492
0.00352061
0.00351381
0.00350466
0.00349326
0.00347975
0.00346432
0.00344725
0.00342877
0.00340913
0.00338861
0.00336751
0.00334616
0.00332487
0.00330399
0.00328385
0.00326479
0.00324713
0.00323119
0.00321723
0.00314595
0.00313963
0.00313559
0.0031339
0.00313462
0.00313768
0.0031431
0.00315074
0.00316046
0.00317211
0.00318547
0.00320029
0.0032163
0.00323325
0.00325085
0.00326883
0.00328688
0.00330473
0.00332208
0.00333868
0.00335426
0.00336861
0.00338152
0.00339279
0.00340229
0.00340988
0.00341547
0.00341899
0.00342042
0.00341972
0.0034169
0.00341197
0.003405
0.00339612
0.00338543
0.00337307
0.00335921
0.00334413
0.003328
0.00331104
0.0032935
0.00327563
0.00325772
0.00324004
0.00322288
0.00320652
0.00319125
0.00317732
0.00316499
0.00315447
0.00355529
0.00355349
0.00355355
0.00355543
0.00355915
0.00356457
0.00357161
0.00358012
0.00358995
0.00360094
0.0036129
0.0036256
0.00363882
0.00365238
0.00366608
0.0036797
0.00369307
0.00370597
0.0037182
0.00372961
0.00374002
0.00374928
0.00375724
0.00376381
0.00376886
0.00377234
0.0037742
0.00377441
0.003773
0.00376995
0.00376531
0.00375911
0.00375145
0.00374245
0.00373222
0.00372089
0.00370864
0.00369564
0.00368209
0.00366818
0.00365414
0.00364022
0.00362664
0.00361361
0.00360137
0.00359012
0.0035801
0.00357146
0.00356437
0.00355895
0.00531678
0.00532321
0.00533075
0.00533923
0.0053485
0.00535832
0.00536851
0.00537887
0.0053892
0.00539934
0.00540914
0.00541844
0.00542709
0.00543501
0.00544209
0.00544827
0.00545351
0.00545775
0.0054609
0.00546298
0.00546397
0.00546384
0.00546261
0.00546029
0.0054569
0.00545249
0.00544714
0.00544094
0.00543396
0.00542628
0.00541797
0.00540912
0.00539988
0.00539037
0.0053807
0.00537103
0.0053615
0.00535222
0.00534335
0.00533502
0.00532742
0.00532067
0.00531493
0.00531036
0.00530704
0.00530507
0.00530455
0.00530545
0.00530783
0.00531164
0.0120989
0.0121154
0.0121323
0.0121492
0.012166
0.0121822
0.0121975
0.0122115
0.0122242
0.0122352
0.0122444
0.0122518
0.0122575
0.0122613
0.012263
0.0122629
0.0122607
0.0122567
0.0122509
0.0122435
0.0122345
0.0122243
0.0122129
0.0122004
0.0121871
0.0121733
0.0121589
0.0121443
0.0121296
0.0121151
0.0121009
0.0120872
0.0120743
0.0120622
0.0120512
0.0120414
0.0120329
0.0120259
0.0120206
0.012017
0.0120152
0.0120153
0.0120173
0.0120213
0.0120274
0.0120352
0.0120448
0.0120561
0.0120691
0.0120834
0.0526234
0.0526182
0.0526186
0.0526246
0.0526367
0.0526543
0.0526773
0.0527052
0.0527376
0.0527739
0.0528133
0.052855
0.0528983
0.0529422
0.0529857
0.0530282
0.0530685
0.0531056
0.0531398
0.0531703
0.0531969
0.0532191
0.0532367
0.0532496
0.0532576
0.0532609
0.0532595
0.0532538
0.0532437
0.0532297
0.0532118
0.0531905
0.0531659
0.0531385
0.0531084
0.0530762
0.0530421
0.0530065
0.0529699
0.0529325
0.0528949
0.0528577
0.0528213
0.0527865
0.0527538
0.0527231
0.052695
0.0526704
0.0526499
0.0526341
1.6913
1.69648
1.70109
1.70506
1.70835
1.71089
1.71266
1.71363
1.71377
1.7131
1.71161
1.70931
1.70623
1.70245
1.69797
1.69289
1.68726
1.68118
1.67474
1.66803
1.66117
1.65425
1.64739
1.64071
1.63432
1.62832
1.62282
1.61791
1.61367
1.61019
1.60752
1.6057
1.60477
1.60474
1.6056
1.60735
1.60993
1.61333
1.61747
1.62227
1.62764
1.63349
1.63974
1.64627
1.65298
1.65977
1.66653
1.67316
1.67956
1.68564
0.566608
0.568313
0.569823
0.571115
0.572172
0.572978
0.573521
0.573792
0.573785
0.573508
0.572952
0.57213
0.571051
0.569737
0.568198
0.566459
0.564547
0.56249
0.560318
0.558065
0.555767
0.55346
0.551181
0.548967
0.546855
0.544881
0.543078
0.541478
0.540107
0.538989
0.538143
0.537584
0.537323
0.537361
0.537694
0.538324
0.539228
0.540405
0.541824
0.543459
0.545283
0.547266
0.549374
0.551575
0.553831
0.556109
0.558371
0.560584
0.562715
0.564733
0.331799
0.332757
0.3336
0.334316
0.334893
0.335325
0.335604
0.335726
0.335689
0.335496
0.335144
0.334641
0.333992
0.333211
0.332305
0.331288
0.330175
0.328984
0.327731
0.326437
0.325121
0.323804
0.322508
0.321254
0.320061
0.318951
0.317942
0.317052
0.316294
0.315683
0.315229
0.31494
0.31482
0.314873
0.315093
0.315482
0.316027
0.316726
0.317561
0.318518
0.31958
0.320731
0.321951
0.32322
0.324518
0.325825
0.32712
0.328384
0.329596
0.33074
0.232302
0.232938
0.233495
0.233964
0.234339
0.234614
0.234786
0.234851
0.234808
0.234661
0.234406
0.234051
0.233598
0.233057
0.232433
0.231736
0.230977
0.230166
0.229317
0.228442
0.227555
0.226669
0.2258
0.224961
0.224166
0.223428
0.22276
0.222173
0.221677
0.221281
0.22099
0.220812
0.220748
0.220799
0.220964
0.221241
0.221623
0.222107
0.222683
0.223339
0.224064
0.224848
0.225677
0.226537
0.227415
0.228297
0.229169
0.230018
0.230832
0.231596
0.173747
0.174212
0.174618
0.174959
0.17523
0.175428
0.175548
0.17559
0.175553
0.175438
0.175244
0.174976
0.174636
0.174233
0.173768
0.17325
0.172687
0.172087
0.171459
0.170813
0.170159
0.169507
0.168867
0.168251
0.167668
0.167128
0.16664
0.166212
0.165852
0.165566
0.165358
0.165232
0.165191
0.165235
0.165363
0.165573
0.165859
0.166222
0.16665
0.167138
0.167676
0.168257
0.16887
0.169505
0.170153
0.170804
0.171446
0.172071
0.172668
0.17323
0.135967
0.136331
0.136649
0.136916
0.137127
0.137281
0.137374
0.137405
0.137375
0.137283
0.137129
0.136917
0.136648
0.13633
0.135964
0.135556
0.135112
0.13464
0.134146
0.133638
0.133123
0.132611
0.132109
0.131626
0.131168
0.130745
0.130362
0.130028
0.129746
0.129523
0.129361
0.129265
0.129234
0.12927
0.129373
0.129539
0.129766
0.130052
0.13039
0.130775
0.131198
0.131655
0.132137
0.132637
0.133147
0.133658
0.134162
0.134652
0.135121
0.135561
0.110445
0.110743
0.111003
0.11122
0.111393
0.111519
0.111594
0.11162
0.111594
0.111519
0.111393
0.111219
0.110999
0.110738
0.110439
0.110105
0.109742
0.109355
0.108951
0.108535
0.108114
0.107695
0.107285
0.106889
0.106515
0.106169
0.105857
0.105583
0.105353
0.105171
0.105039
0.104961
0.104937
0.104967
0.105051
0.105188
0.105374
0.105608
0.105885
0.1062
0.106547
0.106921
0.107315
0.107724
0.10814
0.108558
0.108971
0.109371
0.109755
0.110114
0.092522
0.0927735
0.092993
0.0931772
0.0933236
0.0934298
0.0934944
0.0935161
0.0934953
0.0934323
0.0933263
0.0931799
0.0929949
0.092775
0.0925224
0.0922406
0.0919342
0.0916079
0.0912665
0.0909153
0.0905598
0.0902058
0.0898587
0.0895243
0.089208
0.0889153
0.088651
0.0884196
0.0882251
0.0880707
0.0879591
0.0878924
0.0878716
0.0878968
0.0879676
0.0880829
0.0882397
0.0884378
0.0886718
0.0889373
0.0892301
0.0895457
0.0898787
0.0902238
0.0905755
0.0909282
0.0912765
0.0916149
0.0919385
0.0922423
0.0795199
0.0797375
0.0799275
0.0800872
0.0802142
0.0803065
0.0803629
0.0803824
0.0803651
0.0803113
0.0802204
0.0800946
0.0799353
0.0797458
0.0795279
0.0792848
0.0790203
0.0787385
0.0784434
0.0781399
0.0778325
0.0775263
0.0772259
0.0769364
0.0766626
0.0764091
0.07618
0.0759794
0.0758107
0.0756767
0.0755797
0.0755215
0.075503
0.0755244
0.0755852
0.0756845
0.0758196
0.0759908
0.0761928
0.0764221
0.076675
0.0769476
0.0772353
0.0775335
0.0778373
0.0781421
0.0784431
0.0787356
0.0790153
0.079278
0.0697634
0.0699549
0.0701222
0.0702629
0.0703749
0.0704566
0.0705067
0.0705244
0.0705099
0.0704632
0.070384
0.070274
0.0701347
0.0699687
0.0697776
0.0695643
0.0693321
0.0690846
0.0688254
0.0685585
0.0682882
0.0680188
0.0677545
0.0674996
0.0672585
0.0670351
0.0668332
0.0666563
0.0665074
0.0663891
0.0663032
0.0662516
0.0662349
0.0662533
0.0663064
0.0663934
0.0665117
0.0666621
0.0668395
0.0670409
0.0672631
0.0675026
0.0677553
0.0680173
0.0682843
0.0685521
0.0688166
0.0690737
0.0693196
0.0695506
0.0621998
0.0623704
0.0625195
0.062645
0.062745
0.0628182
0.0628632
0.0628795
0.0628671
0.0628262
0.0627563
0.062659
0.0625357
0.0623884
0.0622188