/*--------------------------------*- C++ -*----------------------------------*\
| =========                 |                                                 |
| \\      /  F ield         | OpenFOAM: The Open Source CFD Toolbox           |
|  \\    /   O peration     | Version:  4.x                                   |
|   \\  /    A nd           | Web:      www.OpenFOAM.org                      |
|    \\/     M anipulation  |                                                 |
\*---------------------------------------------------------------------------*/
FoamFile
{
    version     2.0;
    format      ascii;
    class       volScalarField;
    location    "90";
    object      k;
}
// * * * * * * * * * * * * * * * * * * * * * * * * * * * * * * * * * * * * * //

dimensions      [0 2 -2 0 0 0 0];

internalField   nonuniform List<scalar> 
237650
(
0.0737058
0.073859
0.0739951
0.0741121
0.0742084
0.0742827
0.0743337
0.0743609
0.0743636
0.0743423
0.0742963
0.0742265
0.0741339
0.0740202
0.0738862
0.0737341
0.0735661
0.0733846
0.0731924
0.0729924
0.0727876
0.0725813
0.0723768
0.0721776
0.0719869
0.071808
0.071644
0.0714977
0.0713717
0.0712682
0.0711889
0.0711354
0.0711087
0.0711089
0.0711358
0.0711894
0.0712679
0.071371
0.0714962
0.0716408
0.0718026
0.0719789
0.0721665
0.0723625
0.0725637
0.0727669
0.0729688
0.0731666
0.0733571
0.0735377
0.0579804
0.0581159
0.0582354
0.0583371
0.0584197
0.0584818
0.0585227
0.0585417
0.0585383
0.0585134
0.058466
0.0583973
0.0583082
0.0582003
0.0580747
0.0579332
0.0577779
0.0576113
0.0574357
0.0572538
0.0570685
0.0568827
0.0566994
0.0565215
0.0563522
0.0561941
0.05605
0.0559225
0.0558135
0.0557253
0.0556591
0.0556162
0.0555975
0.0556031
0.0556325
0.0556859
0.0557614
0.055859
0.0559759
0.0561101
0.0562593
0.056421
0.0565926
0.0567712
0.056954
0.0571381
0.0573205
0.0574985
0.0576695
0.0578309
0.0678151
0.067972
0.0681102
0.0682277
0.0683227
0.0683939
0.0684403
0.0684612
0.0684561
0.068426
0.0683696
0.0682886
0.0681838
0.0680574
0.0679104
0.067745
0.0675637
0.0673692
0.0671645
0.0669526
0.0667368
0.0665206
0.0663075
0.0661009
0.0659042
0.0657208
0.0655538
0.0654061
0.0652802
0.0651784
0.0651024
0.0650536
0.0650328
0.0650406
0.065076
0.0651392
0.0652282
0.0653429
0.06548
0.0656371
0.0658115
0.0660004
0.0662007
0.0664091
0.0666221
0.0668364
0.0670487
0.0672557
0.0674543
0.0676417
0.0759908
0.07616
0.076309
0.0764359
0.0765387
0.0766161
0.0766668
0.0766901
0.0766854
0.0766539
0.0765941
0.0765079
0.076396
0.0762608
0.0761033
0.0759261
0.0757316
0.0755229
0.0753031
0.0750754
0.0748435
0.074611
0.0743817
0.0741593
0.0739475
0.0737499
0.0735698
0.0734104
0.0732745
0.0731644
0.0730819
0.0730287
0.0730056
0.0730132
0.0730505
0.0731178
0.0732127
0.0733353
0.0734822
0.0736505
0.0738375
0.0740402
0.0742551
0.0744788
0.0747076
0.0749378
0.075166
0.0753886
0.0756023
0.075804
0.082181
0.0823593
0.0825166
0.0826508
0.0827598
0.0828421
0.0828965
0.0829223
0.0829186
0.0828869
0.0828255
0.0827362
0.0826199
0.0824791
0.0823148
0.0821296
0.0819263
0.0817079
0.0814776
0.0812389
0.0809957
0.0807517
0.0805108
0.0802771
0.0800543
0.0798463
0.0796566
0.0794886
0.0793449
0.0792284
0.0791407
0.0790838
0.0790583
0.0790651
0.079103
0.0791723
0.0792708
0.0793984
0.0795514
0.079727
0.0799224
0.0801343
0.0803592
0.0805935
0.0808332
0.0810747
0.0813141
0.0815478
0.0817723
0.0819844
0.0875208
0.0877063
0.0878703
0.0880104
0.0881246
0.0882112
0.0882691
0.0882972
0.0882949
0.0882636
0.0882015
0.0881104
0.0879913
0.0878467
0.0876777
0.0874868
0.087277
0.0870514
0.0868133
0.0865664
0.0863146
0.0860617
0.0858119
0.0855693
0.0853379
0.0851217
0.0849243
0.0847492
0.0845992
0.0844772
0.0843852
0.0843248
0.084297
0.0843026
0.0843405
0.0844109
0.0845115
0.0846425
0.0847999
0.0849808
0.0851822
0.0854009
0.0856332
0.0858753
0.0861232
0.0863731
0.0866211
0.0868633
0.0870963
0.0873165
0.0925219
0.0927138
0.0928836
0.093029
0.0931478
0.0932383
0.0932992
0.0933296
0.0933288
0.093298
0.0932355
0.0931432
0.0930218
0.0928742
0.0927012
0.0925057
0.0922905
0.0920589
0.0918142
0.0915602
0.091301
0.0910406
0.0907831
0.0905328
0.0902939
0.0900705
0.0898663
0.0896849
0.0895294
0.0894025
0.0893064
0.0892429
0.0892129
0.0892174
0.089255
0.0893262
0.0894284
0.0895622
0.0897232
0.0899084
0.0901149
0.0903393
0.0905778
0.0908266
0.0910816
0.0913387
0.091594
0.0918435
0.0920837
0.0923109
0.0972446
0.0974415
0.097616
0.0977655
0.097888
0.0979817
0.0980453
0.0980776
0.0980782
0.0980479
0.0979854
0.0978922
0.0977695
0.0976195
0.0974437
0.0972447
0.0970254
0.0967892
0.0965394
0.09628
0.0960151
0.0957488
0.0954852
0.0952289
0.0949841
0.0947549
0.0945453
0.0943589
0.0941988
0.0940681
0.0939687
0.0939026
0.0938707
0.093874
0.0939114
0.093983
0.0940863
0.0942222
0.0943858
0.0945743
0.0947847
0.0950134
0.0952567
0.0955106
0.095771
0.0960337
0.0962946
0.0965498
0.0967956
0.0970283
0.101615
0.101815
0.101993
0.102146
0.102271
0.102367
0.102433
0.102467
0.102469
0.102439
0.102377
0.102283
0.10216
0.102009
0.101831
0.10163
0.101408
0.101169
0.100916
0.100653
0.100384
0.100114
0.0998459
0.0995853
0.0993362
0.0991029
0.0988893
0.0986992
0.0985358
0.0984021
0.0983001
0.0982319
0.0981984
0.0982007
0.0982376
0.0983093
0.0984131
0.0985502
0.0987154
0.098906
0.0991188
0.0993504
0.0995968
0.0998541
0.100118
0.100385
0.100649
0.100908
0.101158
0.101395
0.105568
0.105771
0.105951
0.106106
0.106233
0.106331
0.106398
0.106434
0.106437
0.106408
0.106347
0.106254
0.106131
0.105979
0.105801
0.105599
0.105377
0.105136
0.104881
0.104617
0.104346
0.104073
0.103803
0.10354
0.103288
0.103052
0.102836
0.102644
0.102478
0.102342
0.102238
0.102169
0.102134
0.102135
0.102171
0.102242
0.102346
0.102483
0.102649
0.10284
0.103054
0.103287
0.103535
0.103794
0.104059
0.104328
0.104594
0.104856
0.105107
0.105346
0.109071
0.109274
0.109455
0.109611
0.109739
0.109838
0.109907
0.109944
0.109948
0.109921
0.109861
0.109769
0.109647
0.109497
0.10932
0.109119
0.108897
0.108657
0.108403
0.108138
0.107867
0.107594
0.107323
0.10706
0.106807
0.10657
0.106353
0.10616
0.105993
0.105856
0.10575
0.105679
0.105643
0.105643
0.105678
0.105749
0.105851
0.105988
0.106153
0.106343
0.106556
0.106789
0.107036
0.107295
0.10756
0.107828
0.108095
0.108357
0.108609
0.108848
0.112111
0.112314
0.112494
0.11265
0.112779
0.112879
0.112948
0.112986
0.112992
0.112967
0.112909
0.112819
0.1127
0.112552
0.112377
0.112179
0.111959
0.111721
0.111469
0.111206
0.110937
0.110666
0.110397
0.110134
0.109883
0.109647
0.10943
0.109236
0.109069
0.108932
0.108826
0.108754
0.108716
0.108715
0.108749
0.108817
0.108918
0.109052
0.109215
0.109403
0.109614
0.109844
0.110089
0.110346
0.110609
0.110875
0.11114
0.1114
0.111651
0.111889
0.114693
0.114894
0.115073
0.115228
0.115357
0.115457
0.115527
0.115566
0.115574
0.115551
0.115495
0.115409
0.115293
0.115149
0.114978
0.114783
0.114568
0.114334
0.114086
0.113828
0.113562
0.113295
0.113029
0.112769
0.11252
0.112286
0.112071
0.111879
0.111713
0.111576
0.111469
0.111397
0.111358
0.111356
0.111387
0.111453
0.111551
0.111682
0.111841
0.112026
0.112233
0.112459
0.1127
0.112952
0.113211
0.113474
0.113735
0.113991
0.114238
0.114474
0.116828
0.117026
0.117202
0.117355
0.117483
0.117582
0.117653
0.117694
0.117704
0.117683
0.117631
0.117549
0.117437
0.117298
0.117133
0.116944
0.116735
0.116507
0.116265
0.116013
0.115753
0.115491
0.115231
0.114976
0.114731
0.114501
0.114289
0.114099
0.113935
0.113799
0.113693
0.11362
0.113581
0.113577
0.113605
0.113668
0.113763
0.113889
0.114043
0.114222
0.114423
0.114643
0.114877
0.115123
0.115376
0.115633
0.115888
0.116139
0.116382
0.116612
0.118528
0.118721
0.118894
0.119044
0.11917
0.119269
0.11934
0.119382
0.119395
0.119377
0.11933
0.119253
0.119147
0.119014
0.118856
0.118675
0.118473
0.118253
0.118019
0.117775
0.117523
0.117269
0.117015
0.116767
0.116529
0.116304
0.116096
0.11591
0.115749
0.115615
0.11551
0.115437
0.115397
0.11539
0.115416
0.115474
0.115564
0.115684
0.115832
0.116004
0.116198
0.116409
0.116636
0.116873
0.117118
0.117366
0.117614
0.117858
0.118093
0.118318
0.119808
0.119996
0.120164
0.120311
0.120434
0.120532
0.120603
0.120646
0.120661
0.120648
0.120605
0.120534
0.120436
0.120311
0.120162
0.11999
0.119797
0.119587
0.119363
0.119129
0.118887
0.118642
0.118398
0.118158
0.117927
0.117709
0.117508
0.117327
0.11717
0.117038
0.116935
0.116862
0.11682
0.116811
0.116833
0.116886
0.11697
0.117083
0.117223
0.117386
0.117571
0.117773
0.117989
0.118217
0.118451
0.118689
0.118927
0.119161
0.119388
0.119605
0.120681
0.120861
0.121023
0.121165
0.121285
0.121382
0.121453
0.121498
0.121516
0.121507
0.12147
0.121406
0.121316
0.121201
0.121062
0.120901
0.12072
0.120522
0.12031
0.120088
0.119857
0.119624
0.119391
0.119161
0.11894
0.11873
0.118537
0.118362
0.118209
0.118081
0.117979
0.117907
0.117864
0.117851
0.117869
0.117916
0.117993
0.118098
0.118228
0.118381
0.118555
0.118745
0.118949
0.119165
0.119387
0.119613
0.119839
0.120062
0.120278
0.120486
0.121156
0.121328
0.121483
0.12162
0.121736
0.121831
0.121902
0.121948
0.12197
0.121965
0.121935
0.12188
0.121799
0.121694
0.121567
0.121419
0.121251
0.121067
0.12087
0.120661
0.120445
0.120225
0.120004
0.119787
0.119577
0.119378
0.119193
0.119025
0.118878
0.118753
0.118654
0.118582
0.118537
0.118521
0.118534
0.118575
0.118644
0.118739
0.118858
0.118999
0.11916
0.119337
0.119527
0.119728
0.119936
0.120148
0.12036
0.12057
0.120775
0.120971
0.121244
0.121406
0.121553
0.121683
0.121795
0.121887
0.121958
0.122006
0.122031
0.122033
0.12201
0.121964
0.121894
0.121801
0.121687
0.121553
0.121401
0.121233
0.121052
0.120859
0.120659
0.120454
0.120248
0.120045
0.119848
0.11966
0.119485
0.119326
0.119185
0.119065
0.118968
0.118896
0.11885
0.11883
0.118838
0.118871
0.118931
0.119015
0.119122
0.11925
0.119396
0.119557
0.119732
0.119917
0.120108
0.120304
0.120501
0.120696
0.120887
0.121071
0.120957
0.121108
0.121246
0.121369
0.121476
0.121566
0.121636
0.121686
0.121715
0.121722
0.121707
0.121671
0.121613
0.121534
0.121434
0.121316
0.121181
0.12103
0.120866
0.120692
0.120509
0.120321
0.120132
0.119944
0.119761
0.119586
0.119422
0.119271
0.119138
0.119023
0.118929
0.118857
0.11881
0.118786
0.118788
0.118814
0.118863
0.118935
0.119029
0.119142
0.119272
0.119417
0.119574
0.119741
0.119915
0.120093
0.120272
0.120451
0.120626
0.120796
0.12029
0.120428
0.120556
0.120671
0.120773
0.120859
0.120928
0.12098
0.121013
0.121027
0.121022
0.120997
0.120952
0.120888
0.120805
0.120705
0.120589
0.120458
0.120314
0.12016
0.119998
0.11983
0.119659
0.119488
0.119322
0.119161
0.11901
0.11887
0.118745
0.118636
0.118545
0.118475
0.118425
0.118398
0.118393
0.118409
0.118447
0.118506
0.118584
0.11868
0.118792
0.118918
0.119055
0.119201
0.119355
0.119513
0.119673
0.119832
0.11999
0.120144
0.119252
0.119377
0.119493
0.119599
0.119695
0.119777
0.119846
0.119899
0.119937
0.119958
0.119962
0.119949
0.119919
0.119871
0.119806
0.119725
0.119629
0.119519
0.119397
0.119265
0.119124
0.118977
0.118826
0.118675
0.118525
0.118381
0.118243
0.118115
0.117998
0.117896
0.117809
0.117739
0.117688
0.117656
0.117644
0.117651
0.117677
0.117721
0.117783
0.117861
0.117953
0.118058
0.118174
0.118299
0.118431
0.118567
0.118706
0.118845
0.118985
0.119121
0.117848
0.117958
0.118063
0.118159
0.118248
0.118326
0.118394
0.118449
0.118492
0.118521
0.118535
0.118535
0.118519
0.118489
0.118443
0.118383
0.118308
0.118221
0.118122
0.118013
0.117896
0.117771
0.117642
0.117511
0.11738
0.117252
0.117129
0.117013
0.116907
0.116811
0.116729
0.11666
0.116607
0.116571
0.116551
0.116547
0.116561
0.11659
0.116634
0.116693
0.116765
0.116848
0.116941
0.117042
0.11715
0.117263
0.11738
0.117498
0.117616
0.117734
0.116083
0.116177
0.116269
0.116355
0.116436
0.11651
0.116576
0.116634
0.116681
0.116718
0.116744
0.116757
0.116757
0.116745
0.116719
0.116681
0.11663
0.116567
0.116493
0.116408
0.116315
0.116215
0.116108
0.115999
0.115889
0.115779
0.115671
0.115569
0.115473
0.115385
0.115306
0.115239
0.115185
0.115143
0.115115
0.115101
0.115101
0.115114
0.11514
0.115178
0.115228
0.115288
0.115356
0.115433
0.115516
0.115605
0.115697
0.115792
0.115889
0.115986
0.11396
0.114038
0.114116
0.114191
0.114264
0.114334
0.114398
0.114458
0.11451
0.114555
0.114592
0.114619
0.114636
0.114643
0.114639
0.114623
0.114596
0.114559
0.11451
0.114452
0.114385
0.11431
0.114228
0.114141
0.114052
0.113961
0.11387
0.113781
0.113697
0.113617
0.113543
0.113478
0.113421
0.113375
0.113339
0.113314
0.113299
0.113295
0.113302
0.113319
0.113346
0.113381
0.113424
0.113475
0.113532
0.113594
0.113661
0.113732
0.113806
0.113883
0.111485
0.111545
0.111608
0.111672
0.111737
0.111801
0.111865
0.111926
0.111983
0.112037
0.112085
0.112127
0.112161
0.112188
0.112206
0.112214
0.112212
0.112201
0.112179
0.112148
0.112108
0.112059
0.112002
0.11194
0.111873
0.111802
0.111728
0.111654
0.11158
0.111509
0.111441
0.111377
0.111319
0.111267
0.111223
0.111186
0.111157
0.111136
0.111123
0.111118
0.11112
0.11113
0.111147
0.111171
0.1112
0.111236
0.111277
0.111322
0.111373
0.111427
0.108662
0.108705
0.108752
0.108804
0.10886
0.10892
0.108981
0.109044
0.109106
0.109168
0.109228
0.109285
0.109337
0.109384
0.109424
0.109457
0.109481
0.109496
0.109502
0.109499
0.109487
0.109465
0.109435
0.109397
0.109352
0.109302
0.109246
0.109187
0.109125
0.109063
0.109
0.108938
0.108878
0.108822
0.108769
0.108721
0.108677
0.108638
0.108605
0.108577
0.108555
0.108539
0.108529
0.108525
0.108527
0.108535
0.108548
0.108568
0.108593
0.108625
0.105498
0.105523
0.105555
0.105594
0.105641
0.105695
0.105754
0.105818
0.105886
0.105957
0.106028
0.1061
0.10617
0.106237
0.1063
0.106357
0.106408
0.106451
0.106485
0.10651
0.106525
0.106531
0.106528
0.106515
0.106494
0.106464
0.106427
0.106383
0.106334
0.106281
0.106223
0.106164
0.106102
0.10604
0.105979
0.105919
0.10586
0.105804
0.10575
0.105699
0.105653
0.105611
0.105573
0.105541
0.105515
0.105495
0.105481
0.105474
0.105474
0.105482
0.102002
0.102007
0.102023
0.10205
0.102088
0.102136
0.102193
0.102258
0.102331
0.10241
0.102494
0.10258
0.102668
0.102756
0.102842
0.102924
0.103
0.10307
0.103133
0.103186
0.10323
0.103264
0.103287
0.103299
0.103301
0.103293
0.103274
0.103246
0.10321
0.103165
0.103114
0.103057
0.102994
0.102927
0.102858
0.102786
0.102712
0.102638
0.102564
0.102491
0.10242
0.102352
0.102287
0.102227
0.102172
0.102123
0.102082
0.102048
0.102023
0.102007
0.098182
0.0981688
0.0981689
0.0981831
0.098211
0.0982527
0.0983074
0.098374
0.0984516
0.0985388
0.0986339
0.0987352
0.0988409
0.0989489
0.0990573
0.0991638
0.0992664
0.0993635
0.0994536
0.0995351
0.0996069
0.0996679
0.0997174
0.099755
0.09978
0.0997926
0.0997926
0.0997806
0.0997569
0.099722
0.0996768
0.0996219
0.0995581
0.0994873
0.0994099
0.0993267
0.0992387
0.099147
0.0990529
0.0989575
0.098862
0.0987677
0.0986759
0.0985878
0.0985048
0.0984281
0.098359
0.0982986
0.0982481
0.0982089
0.0940486
0.0940165
0.0940006
0.0940019
0.0940202
0.0940557
0.0941077
0.0941753
0.0942574
0.0943524
0.0944588
0.0945746
0.0946976
0.0948258
0.0949567
0.0950873
0.0952152
0.0953388
0.0954561
0.0955652
0.0956645
0.0957524
0.0958279
0.09589
0.0959379
0.0959712
0.0959896
0.0959932
0.0959821
0.0959568
0.0959177
0.0958656
0.0958013
0.0957263
0.0956413
0.0955472
0.0954453
0.0953368
0.0952232
0.0951061
0.0949869
0.0948673
0.0947489
0.0946335
0.0945229
0.0944186
0.0943225
0.0942356
0.0941597
0.0940969
0.0896185
0.089569
0.0895382
0.0895271
0.0895364
0.0895658
0.089615
0.089683
0.0897688
0.0898707
0.089987
0.0901156
0.0902542
0.0904003
0.0905512
0.0907043
0.0908567
0.091006
0.0911498
0.0912858
0.0914118
0.0915259
0.0916266
0.0917127
0.091783
0.0918367
0.0918732
0.0918921
0.0918936
0.0918777
0.0918449
0.0917956
0.0917311
0.0916524
0.0915602
0.0914557
0.0913404
0.0912157
0.0910834
0.0909452
0.0908031
0.090659
0.0905149
0.090373
0.0902354
0.0901043
0.0899819
0.0898699
0.0897709
0.0896865
0.0849341
0.0848682
0.0848234
0.0848008
0.0848014
0.0848249
0.0848712
0.0849393
0.0850281
0.085136
0.0852612
0.0854013
0.085554
0.0857164
0.0858856
0.0860586
0.0862323
0.0864041
0.0865711
0.0867306
0.0868801
0.0870173
0.0871403
0.0872476
0.087338
0.08741
0.0874628
0.0874958
0.0875087
0.0875016
0.0874748
0.0874284
0.0873643
0.0872825
0.0871843
0.087071
0.0869441
0.0868054
0.0866567
0.0865003
0.0863384
0.0861729
0.0860064
0.0858413
0.08568
0.0855253
0.0853797
0.0852454
0.0851249
0.0850204
0.080039
0.0799587
0.0799014
0.0798685
0.0798612
0.0798792
0.0799224
0.0799902
0.0800812
0.0801939
0.0803263
0.080476
0.0806404
0.0808166
0.0810013
0.081191
0.0813825
0.0815731
0.0817596
0.0819391
0.0821082
0.0822647
0.0824065
0.0825318
0.0826398
0.0827284
0.082796
0.0828419
0.0828654
0.0828665
0.0828453
0.0828022
0.0827383
0.0826542
0.0825511
0.0824303
0.0822934
0.0821424
0.0819795
0.0818079
0.0816297
0.0814467
0.0812617
0.081077
0.0808958
0.0807211
0.0805559
0.0804027
0.0802634
0.0801414
0.0749552
0.0748621
0.0747936
0.0747513
0.0747366
0.0747494
0.0747896
0.0748565
0.0749491
0.0750656
0.075204
0.0753618
0.0755363
0.0757242
0.0759224
0.0761274
0.0763356
0.0765435
0.0767481
0.076946
0.077134
0.0773092
0.0774692
0.0776119
0.0777356
0.0778382
0.0779184
0.0779751
0.0780078
0.078016
0.0780001
0.0779601
0.077897
0.0778115
0.0777048
0.0775783
0.0774337
0.0772731
0.0770987
0.0769132
0.0767193
0.0765194
0.0763166
0.0761137
0.0759141
0.0757208
0.0755372
0.0753659
0.0752097
0.0750721
0.0697296
0.0696254
0.0695472
0.0694968
0.0694755
0.0694833
0.0695203
0.0695862
0.0696795
0.0697986
0.0699415
0.0701056
0.0702879
0.0704853
0.0706943
0.0709113
0.0711326
0.0713538
0.0715723
0.0717845
0.0719871
0.0721769
0.0723512
0.0725074
0.0726438
0.0727581
0.0728489
0.0729149
0.0729554
0.07297
0.0729587
0.0729218
0.0728599
0.0727738
0.0726647
0.0725341
0.0723838
0.0722158
0.0720324
0.0718365
0.0716308
0.0714182
0.0712019
0.070985
0.070771
0.0705633
0.0703654
0.0701795
0.0700094
0.0698586
0.0643955
0.0642826
0.0641968
0.0641398
0.0641131
0.0641168
0.0641509
0.0642153
0.0643086
0.064429
0.0645746
0.0647426
0.0649302
0.0651342
0.0653507
0.0655764
0.0658071
0.0660391
0.0662686
0.0664922
0.0667063
0.0669076
0.0670933
0.0672606
0.0674074
0.0675315
0.0676311
0.0677051
0.0677524
0.0677725
0.0677655
0.0677317
0.0676712
0.067585
0.0674745
0.067341
0.0671864
0.0670128
0.0668227
0.0666187
0.066404
0.0661816
0.0659547
0.0657268
0.0655015
0.0652821
0.0650724
0.0648755
0.0646948
0.0645339
0.0590157
0.0588971
0.058806
0.0587443
0.0587135
0.0587139
0.0587453
0.0588079
0.0589002
0.0590206
0.0591669
0.0593366
0.0595265
0.0597338
0.0599544
0.0601847
0.0604207
0.0606586
0.0608945
0.0611247
0.0613457
0.0615541
0.0617468
0.0619212
0.0620747
0.0622052
0.0623108
0.0623902
0.0624425
0.0624669
0.0624633
0.0624319
0.0623731
0.0622878
0.0621773
0.0620429
0.0618865
0.0617103
0.0615167
0.0613086
0.061089
0.0608611
0.0606283
0.0603941
0.060162
0.0599357
0.0597189
0.0595151
0.0593277
0.0591603
0.0536586
0.0535372
0.0534434
0.0533791
0.0533455
0.0533435
0.0533725
0.053433
0.0535235
0.0536423
0.0537876
0.0539565
0.0541462
0.0543533
0.0545741
0.054805
0.0550419
0.0552811
0.0555187
0.0557508
0.055974
0.0561849
0.0563803
0.0565575
0.0567139
0.0568473
0.056956
0.0570384
0.0570935
0.0571207
0.0571196
0.0570908
0.057034
0.0569504
0.0568413
0.0567079
0.0565522
0.0563762
0.0561826
0.0559741
0.0557537
0.0555247
0.0552906
0.0550546
0.0548205
0.0545919
0.0543725
0.0541662
0.0539762
0.0538061
0.0483949
0.0482735
0.0481794
0.0481144
0.0480797
0.048076
0.0481032
0.0481614
0.0482493
0.0483653
0.0485076
0.0486734
0.0488598
0.0490635
0.0492809
0.0495084
0.0497421
0.0499782
0.0502129
0.0504425
0.0506634
0.0508723
0.0510661
0.0512421
0.0513977
0.0515308
0.0516395
0.0517224
0.0517785
0.051807
0.0518076
0.0517808
0.0517263
0.0516452
0.0515388
0.0514084
0.0512557
0.051083
0.0508926
0.0506873
0.0504701
0.050244
0.0500127
0.0497794
0.0495477
0.0493214
0.0491042
0.0488995
0.048711
0.0485417
0.0432925
0.0431739
0.0430818
0.0430179
0.0429835
0.0429792
0.0430048
0.0430606
0.0431454
0.0432575
0.0433952
0.0435558
0.0437364
0.0439339
0.0441447
0.0443652
0.0445919
0.044821
0.0450487
0.0452716
0.045486
0.045689
0.0458773
0.0460484
0.0461997
0.0463293
0.0464354
0.0465165
0.0465716
0.0466
0.0466013
0.0465762
0.0465241
0.0464462
0.0463438
0.0462179
0.0460705
0.0459035
0.0457193
0.0455205
0.04531
0.0450908
0.0448664
0.0446399
0.0444148
0.0441948
0.0439835
0.0437843
0.0436007
0.0434358
0.0384111
0.0382976
0.0382094
0.0381482
0.0381152
0.0381111
0.0381356
0.0381892
0.0382704
0.0383778
0.0385098
0.0386636
0.0388364
0.0390252
0.0392267
0.0394376
0.0396541
0.0398728
0.0400902
0.0403028
0.0405074
0.0407009
0.0408804
0.0410434
0.0411876
0.041311
0.041412
0.0414893
0.0415418
0.0415688
0.0415701
0.0415462
0.0414966
0.0414225
0.0413249
0.041205
0.0410645
0.0409053
0.0407297
0.0405402
0.0403394
0.0401303
0.039916
0.0396997
0.0394847
0.0392743
0.0390723
0.0388818
0.0387061
0.0385482
0.0337916
0.0336848
0.033602
0.0335447
0.0335142
0.033511
0.0335348
0.0335862
0.0336637
0.0337659
0.0338912
0.034037
0.0342007
0.0343792
0.0345697
0.0347686
0.0349729
0.0351789
0.0353835
0.0355834
0.0357755
0.0359569
0.0361251
0.0362776
0.0364124
0.0365276
0.0366217
0.0366936
0.0367421
0.0367669
0.0367675
0.0367445
0.0366973
0.0366274
0.0365353
0.0364223
0.03629
0.0361403
0.0359751
0.0357968
0.0356079
0.0354111
0.0352093
0.0350056
0.034803
0.0346049
0.0344144
0.0342349
0.0340694
0.0339207
0.0294462
0.0293475
0.0292713
0.0292191
0.0291918
0.0291902
0.0292137
0.0292631
0.0293368
0.0294335
0.0295515
0.0296885
0.0298419
0.030009
0.0301869
0.0303726
0.0305628
0.0307545
0.0309445
0.0311299
0.0313077
0.0314754
0.0316304
0.0317706
0.0318943
0.0319999
0.0320858
0.0321511
0.0321949
0.0322166
0.0322161
0.0321937
0.0321491
0.0320833
0.0319972
0.0318917
0.0317685
0.0316291
0.0314756
0.0313099
0.0311343
0.0309513
0.0307637
0.0305742
0.0303858
0.0302015
0.0300244
0.0298574
0.0297037
0.0295657
0.025418
0.0253309
0.0252644
0.0252197
0.0251978
0.025199
0.025223
0.0252704
0.0253395
0.0254294
0.0255382
0.0256638
0.0258038
0.0259561
0.0261178
0.0262861
0.0264584
0.0266317
0.0268032
0.0269702
0.02713
0.0272805
0.0274192
0.0275443
0.0276545
0.0277482
0.0278241
0.0278812
0.0279189
0.0279366
0.0279342
0.0279121
0.0278699
0.0278086
0.0277289
0.0276318
0.0275188
0.0273914
0.0272513
0.0271004
0.0269407
0.0267745
0.0266041
0.0264323
0.0262618
0.0260953
0.0259356
0.0257854
0.0256475
0.0255243
0.0219761
0.0219112
0.0218635
0.0218337
0.0218225
0.0218297
0.0218554
0.0218994
0.0219605
0.0220377
0.0221297
0.0222345
0.0223504
0.0224754
0.0226076
0.0227448
0.0228847
0.0230253
0.0231643
0.0232998
0.0234296
0.023552
0.0236653
0.0237676
0.0238574
0.0239333
0.0239942
0.024039
0.0240672
0.0240786
0.0240729
0.0240505
0.0240109
0.0239554
0.0238843
0.0237987
0.0236998
0.0235892
0.0234685
0.0233394
0.023204
0.0230645
0.0229229
0.0227815
0.0226424
0.0225077
0.0223798
0.0222607
0.0221525
0.0220571
0.0199435
0.0199083
0.0198854
0.019875
0.0198772
0.0198916
0.0199187
0.0199575
0.0200072
0.020067
0.0201358
0.0202123
0.020295
0.0203827
0.0204739
0.0205671
0.0206613
0.0207548
0.0208458
0.0209334
0.0210163
0.0210934
0.021163
0.0212242
0.021276
0.0213178
0.0213498
0.0213713
0.0213818
0.0213812
0.0213696
0.0213467
0.0213131
0.0212692
0.0212155
0.0211528
0.021082
0.0210042
0.02092
0.0208306
0.0207379
0.0206425
0.0205467
0.0204521
0.02036
0.020272
0.0201898
0.0201146
0.0200476
0.0199904
0.0203191
0.0203162
0.0203192
0.020328
0.0203425
0.0203621
0.0203863
0.0204147
0.0204468
0.0204822
0.0205202
0.020561
0.0206043
0.0206489
0.0206941
0.0207394
0.0207835
0.0208265
0.0208673
0.0209055
0.0209405
0.020972
0.0209994
0.0210223
0.0210403
0.0210532
0.0210605
0.021062
0.021058
0.0210483
0.0210327
0.0210117
0.0209854
0.0209543
0.0209187
0.0208792
0.0208364
0.0207911
0.0207441
0.0206961
0.0206477
0.0206
0.0205536
0.0205093
0.020468
0.0204304
0.0203967
0.0203684
0.0203457
0.020329
0.036638
0.0366356
0.0366358
0.0366385
0.0366441
0.0366523
0.036663
0.0366759
0.0366909
0.0367077
0.036726
0.0367453
0.0367654
0.0367857
0.0368059
0.0368255
0.0368442
0.0368614
0.0368772
0.0368913
0.0369036
0.0369139
0.036922
0.036928
0.0369317
0.0369332
0.0369326
0.0369299
0.0369253
0.0369188
0.0369106
0.0369007
0.0368893
0.0368767
0.0368628
0.0368478
0.0368321
0.0368156
0.0367986
0.0367813
0.0367639
0.0367467
0.0367298
0.0367137
0.0366985
0.0366843
0.0366712
0.0366598
0.0366503
0.036643
0.0776065
0.0777647
0.0779054
0.0780267
0.0781268
0.0782045
0.0782584
0.0782879
0.0782922
0.078272
0.0782266
0.0781566
0.078063
0.0779476
0.0778111
0.0776558
0.0774839
0.0772978
0.0771004
0.0768946
0.0766835
0.0764707
0.0762594
0.0760531
0.0758555
0.0756699
0.0754994
0.0753471
0.0752156
0.0751074
0.0750242
0.0749676
0.0749387
0.0749377
0.0749643
0.0750187
0.0750988
0.0752044
0.0753328
0.0754814
0.0756477
0.0758288
0.0760218
0.0762234
0.0764304
0.0766394
0.0768472
0.0770508
0.077247
0.0774331
0.0573169
0.0574455
0.057559
0.0576556
0.0577341
0.0577933
0.0578323
0.0578505
0.0578476
0.0578242
0.0577795
0.0577147
0.0576304
0.0575283
0.0574093
0.0572751
0.0571279
0.0569698
0.056803
0.0566303
0.0564542
0.0562776
0.0561032
0.055934
0.0557728
0.0556223
0.0554851
0.0553636
0.0552598
0.0551757
0.0551126
0.0550717
0.0550538
0.055059
0.055087
0.0551377
0.0552096
0.0553023
0.0554135
0.055541
0.0556828
0.0558365
0.0559995
0.0561692
0.0563427
0.0565174
0.0566906
0.0568595
0.0570218
0.057175
0.0663987
0.0665458
0.0666752
0.0667853
0.0668743
0.0669411
0.0669847
0.0670043
0.0669996
0.0669715
0.0669188
0.0668431
0.066745
0.0666266
0.0664888
0.0663338
0.0661638
0.0659815
0.0657894
0.0655906
0.0653881
0.0651852
0.064985
0.0647909
0.0646062
0.0644339
0.064277
0.0641382
0.06402
0.0639244
0.0638531
0.0638073
0.0637879
0.0637953
0.0638287
0.0638883
0.0639721
0.0640799
0.0642088
0.0643564
0.0645202
0.0646976
0.0648856
0.065081
0.0652808
0.0654817
0.0656806
0.0658746
0.0660608
0.0662363
0.0744902
0.0746493
0.0747893
0.0749084
0.0750048
0.0750772
0.0751244
0.0751459
0.0751409
0.0751108
0.075054
0.0749723
0.0748664
0.0747385
0.0745897
0.0744222
0.0742386
0.0740416
0.073834
0.0736191
0.0734002
0.0731808
0.0729644
0.0727545
0.0725547
0.0723684
0.0721987
0.0720486
0.0719206
0.0718172
0.0717399
0.0716904
0.0716692
0.0716771
0.0717131
0.0717773
0.0718677
0.0719841
0.0721234
0.0722828
0.0724598
0.0726515
0.0728545
0.0730657
0.0732816
0.0734988
0.0737138
0.0739235
0.0741247
0.0743146
0.0805801
0.0807487
0.0808974
0.081024
0.0811267
0.0812041
0.0812551
0.0812788
0.0812747
0.0812441
0.0811852
0.0810999
0.080989
0.0808549
0.0806986
0.0805224
0.0803291
0.0801215
0.0799026
0.0796758
0.0794448
0.079213
0.0789842
0.0787622
0.0785508
0.0783534
0.0781735
0.0780142
0.0778783
0.0777681
0.0776855
0.0776322
0.0776089
0.0776162
0.0776531
0.0777199
0.0778144
0.0779365
0.0780827
0.0782503
0.0784365
0.0786383
0.0788523
0.0790749
0.0793026
0.0795318
0.0797589
0.0799805
0.0801932
0.0803941
0.0856704
0.0858466
0.0860022
0.086135
0.086243
0.0863247
0.086379
0.0864049
0.0864019
0.0863713
0.0863113
0.0862237
0.0861095
0.0859709
0.0858092
0.0856267
0.0854261
0.0852106
0.0849832
0.0847474
0.084507
0.0842657
0.0840273
0.0837959
0.0835752
0.0833691
0.0831811
0.0830144
0.0828719
0.0827562
0.0826691
0.0826124
0.0825869
0.0825934
0.0826306
0.082699
0.0827961
0.0829222
0.0830734
0.0832469
0.08344
0.0836493
0.0838714
0.0841027
0.0843395
0.0845778
0.0848142
0.085045
0.0852667
0.0854762
0.0902194
0.0904015
0.0905624
0.0907
0.0908123
0.0908975
0.0909546
0.0909826
0.0909808
0.0909506
0.0908901
0.0908012
0.0906849
0.0905434
0.0903779
0.090191
0.0899853
0.0897641
0.0895305
0.0892881
0.0890408
0.0887924
0.0885469
0.0883083
0.0880807
0.0878679
0.0876736
0.0875011
0.0873535
0.0872333
0.0871426
0.087083
0.0870556
0.087061
0.0870981
0.0871672
0.087266
0.0873948
0.0875494
0.0877271
0.0879249
0.0881397
0.0883677
0.0886053
0.0888485
0.0890937
0.0893369
0.0895745
0.0898029
0.0900189
0.094384
0.0945703
0.0947352
0.0948764
0.0949918
0.0950799
0.0951392
0.095169
0.0951686
0.095139
0.0950786
0.0949893
0.094872
0.0947288
0.0945611
0.0943715
0.0941626
0.0939377
0.0937001
0.0934533
0.0932013
0.092948
0.0926975
0.092454
0.0922214
0.0920038
0.0918049
0.0916282
0.0914767
0.0913531
0.0912595
0.0911976
0.0911684
0.0911728
0.0912095
0.0912788
0.0913783
0.0915086
0.0916652
0.0918455
0.0920463
0.0922645
0.0924963
0.0927381
0.0929857
0.0932354
0.0934832
0.0937255
0.0939586
0.0941792
0.0982059
0.098395
0.0985625
0.0987063
0.0988241
0.0989143
0.0989755
0.0990069
0.0990078
0.0989792
0.0989196
0.0988305
0.0987132
0.0985695
0.098401
0.0982101
0.0979996
0.0977729
0.097533
0.0972837
0.0970289
0.0967727
0.0965191
0.0962723
0.0960365
0.0958158
0.0956137
0.0954341
0.0952798
0.0951537
0.0950578
0.0949941
0.0949633
0.0949665
0.0950025
0.0950714
0.0951708
0.0953017
0.0954592
0.0956405
0.0958429
0.0960629
0.0962967
0.0965407
0.0967908
0.0970431
0.0972937
0.0975388
0.0977748
0.0979982
0.101693
0.101883
0.102052
0.102198
0.102317
0.102409
0.102472
0.102505
0.102507
0.10248
0.102421
0.102333
0.102217
0.102074
0.101905
0.101715
0.101504
0.101277
0.101037
0.100786
0.100531
0.100273
0.100018
0.0997697
0.0995321
0.0993096
0.0991057
0.0989242
0.098768
0.0986402
0.0985426
0.0984774
0.0984452
0.0984471
0.098482
0.09855
0.0986486
0.0987792
0.0989364
0.0991177
0.0993201
0.0995404
0.0997747
0.100019
0.10027
0.100523
0.100775
0.101021
0.101259
0.101483
0.104841
0.105032
0.105202
0.105348
0.105469
0.105562
0.105626
0.10566
0.105664
0.105638
0.105582
0.105495
0.10538
0.105239
0.105072
0.104883
0.104674
0.104448
0.104208
0.103959
0.103703
0.103446
0.103191
0.102943
0.102705
0.102482
0.102277
0.102095
0.101938
0.101809
0.10171
0.101643
0.10161
0.10161
0.101644
0.10171
0.101808
0.101937
0.102093
0.102273
0.102474
0.102693
0.102926
0.10317
0.10342
0.103673
0.103924
0.10417
0.104407
0.104632
0.107647
0.107838
0.108007
0.108153
0.108274
0.108368
0.108433
0.108469
0.108474
0.10845
0.108396
0.108312
0.1082
0.108061
0.107897
0.10771
0.107503
0.10728
0.107043
0.106796
0.106543
0.106287
0.106034
0.105787
0.10555
0.105327
0.105123
0.104941
0.104783
0.104654
0.104555
0.104487
0.104452
0.104451
0.104483
0.104548
0.104643
0.10477
0.104923
0.105101
0.1053
0.105516
0.105747
0.105988
0.106236
0.106486
0.106735
0.10698
0.107215
0.107439
0.110105
0.110294
0.110462
0.110608
0.110728
0.110822
0.110888
0.110926
0.110933
0.110911
0.11086
0.110779
0.11067
0.110535