/*--------------------------------*- C++ -*----------------------------------*\
| =========                 |                                                 |
| \\      /  F ield         | OpenFOAM: The Open Source CFD Toolbox           |
|  \\    /   O peration     | Version:  4.x                                   |
|   \\  /    A nd           | Web:      www.OpenFOAM.org                      |
|    \\/     M anipulation  |                                                 |
\*---------------------------------------------------------------------------*/
FoamFile
{
    version     2.0;
    format      ascii;
    class       volScalarField;
    location    "90";
    object      nut;
}
// * * * * * * * * * * * * * * * * * * * * * * * * * * * * * * * * * * * * * //

dimensions      [0 2 -1 0 0 0 0];

internalField   nonuniform List<scalar> 
237650
(
0.000312575
0.000312899
0.000313187
0.000313434
0.000313638
0.000313795
0.000313903
0.000313961
0.000313967
0.000313923
0.000313826
0.000313679
0.000313484
0.000313245
0.000312962
0.000312641
0.000312285
0.000311901
0.000311493
0.000311068
0.000310632
0.000310193
0.000309756
0.00030933
0.000308922
0.000308539
0.000308187
0.000307872
0.000307601
0.000307378
0.000307207
0.000307091
0.000307033
0.000307033
0.00030709
0.000307205
0.000307374
0.000307595
0.000307864
0.000308174
0.000308521
0.000308898
0.000309299
0.000309718
0.000310147
0.00031058
0.00031101
0.000311431
0.000311835
0.000312218
0.000542204
0.000543062
0.000543813
0.000544449
0.000544959
0.000545338
0.000545579
0.00054568
0.000545636
0.000545457
0.000545131
0.000544672
0.000544081
0.000543371
0.000542549
0.000541626
0.000540615
0.000539533
0.000538394
0.000537216
0.000536018
0.000534817
0.000533634
0.000532488
0.000531399
0.000530383
0.000529461
0.000528646
0.000527954
0.000527398
0.000526987
0.000526728
0.000526627
0.000526685
0.000526898
0.000527267
0.000527779
0.000528434
0.000529213
0.000530101
0.000531084
0.000532145
0.000533267
0.000534431
0.000535618
0.000536809
0.000537985
0.00053913
0.000540225
0.000541254
0.00118877
0.00119079
0.00119258
0.0011941
0.00119534
0.00119628
0.00119691
0.00119722
0.00119719
0.00119685
0.00119617
0.00119518
0.00119388
0.00119231
0.00119046
0.00118838
0.00118608
0.00118361
0.00118099
0.00117828
0.00117551
0.00117272
0.00116997
0.00116729
0.00116473
0.00116234
0.00116015
0.00115821
0.00115654
0.00115519
0.00115417
0.0011535
0.0011532
0.00115327
0.00115369
0.00115448
0.0011556
0.00115706
0.00115882
0.00116083
0.00116306
0.00116548
0.00116805
0.00117073
0.00117346
0.00117621
0.00117893
0.00118159
0.00118414
0.00118654
0.00209464
0.00209822
0.00210141
0.00210418
0.00210646
0.00210825
0.0021095
0.00211021
0.00211034
0.00210995
0.00210897
0.00210744
0.00210537
0.00210282
0.00209978
0.00209632
0.00209247
0.0020883
0.00208386
0.00207923
0.00207448
0.00206967
0.0020649
0.00206023
0.00205575
0.00205153
0.00204765
0.00204417
0.00204116
0.00203868
0.00203675
0.00203543
0.00203473
0.00203467
0.00203522
0.00203641
0.00203818
0.00204054
0.00204341
0.00204674
0.00205048
0.00205455
0.00205889
0.00206343
0.00206809
0.0020728
0.00207749
0.00208208
0.00208651
0.00209071
0.00331336
0.00331886
0.00332378
0.00332808
0.00333168
0.00333454
0.00333662
0.00333788
0.00333828
0.0033379
0.00333663
0.00333453
0.00333162
0.00332796
0.00332357
0.00331851
0.00331286
0.00330671
0.00330014
0.00329324
0.00328613
0.00327892
0.00327173
0.00326468
0.00325787
0.00325144
0.00324549
0.00324014
0.00323546
0.00323156
0.00322848
0.0032263
0.00322505
0.00322476
0.00322538
0.00322697
0.00322942
0.00323279
0.00323693
0.00324178
0.00324724
0.00325323
0.00325965
0.00326639
0.00327333
0.00328037
0.0032874
0.00329431
0.00330101
0.00330739
0.00489337
0.00490089
0.00490767
0.00491363
0.00491868
0.00492274
0.00492577
0.00492771
0.0049285
0.00492824
0.0049268
0.00492423
0.00492056
0.00491587
0.00491017
0.00490357
0.00489615
0.00488802
0.0048793
0.00487012
0.00486062
0.00485095
0.00484127
0.00483173
0.00482251
0.00481376
0.00480562
0.00479825
0.00479178
0.00478632
0.00478195
0.00477878
0.00477684
0.0047762
0.00477678
0.00477864
0.00478169
0.00478598
0.00479133
0.00479764
0.0048048
0.00481269
0.00482118
0.00483013
0.00483939
0.0048488
0.00485823
0.00486753
0.00487657
0.00488523
0.00682666
0.00683622
0.00684488
0.00685255
0.0068591
0.00686445
0.00686852
0.00687126
0.00687256
0.00687255
0.00687106
0.00686817
0.0068639
0.00685832
0.00685148
0.00684348
0.00683443
0.00682447
0.00681374
0.00680239
0.00679061
0.00677857
0.00676648
0.00675454
0.00674294
0.00673189
0.00672157
0.00671218
0.00670386
0.00669679
0.00669107
0.0066868
0.00668406
0.00668294
0.00668333
0.00668534
0.00668881
0.00669387
0.00670026
0.00670786
0.00671655
0.0067262
0.00673662
0.00674764
0.00675909
0.00677078
0.00678252
0.00679414
0.00680548
0.00681637
0.00907029
0.00908173
0.00909218
0.00910148
0.00910951
0.00911614
0.0091213
0.0091249
0.00912682
0.0091272
0.00912585
0.00912284
0.0091182
0.00911198
0.00910427
0.00909516
0.00908479
0.00907332
0.00906089
0.00904769
0.00903394
0.00901984
0.00900562
0.00899152
0.00897778
0.00896463
0.0089523
0.00894102
0.00893096
0.00892233
0.00891524
0.00890986
0.00890623
0.00890452
0.00890456
0.0089065
0.00891017
0.00891573
0.00892288
0.00893148
0.00894139
0.00895246
0.00896448
0.00897726
0.00899059
0.00900424
0.00901801
0.00903169
0.00904509
0.00905802
0.0115644
0.0115775
0.0115896
0.0116004
0.0116098
0.0116177
0.0116239
0.0116285
0.0116311
0.0116321
0.0116311
0.0116282
0.0116235
0.0116169
0.0116087
0.0115989
0.0115876
0.011575
0.0115613
0.0115467
0.0115314
0.0115156
0.0114997
0.0114838
0.0114682
0.0114533
0.0114392
0.0114263
0.0114146
0.0114045
0.0113961
0.0113896
0.011385
0.0113826
0.0113821
0.0113838
0.0113874
0.0113931
0.0114006
0.0114098
0.0114206
0.0114326
0.0114458
0.0114599
0.0114747
0.0114899
0.0115053
0.0115207
0.0115358
0.0115505
0.0142498
0.0142643
0.0142777
0.0142899
0.0143006
0.0143097
0.014317
0.0143226
0.0143261
0.0143277
0.0143273
0.0143248
0.0143203
0.0143139
0.0143055
0.0142954
0.0142836
0.0142704
0.014256
0.0142404
0.014224
0.0142071
0.0141899
0.0141727
0.0141557
0.0141394
0.0141238
0.0141094
0.0140964
0.014085
0.0140754
0.0140677
0.0140621
0.0140588
0.0140576
0.0140587
0.0140619
0.0140675
0.014075
0.0140844
0.0140954
0.014108
0.0141219
0.0141368
0.0141525
0.0141688
0.0141854
0.014202
0.0142184
0.0142344
0.0170719
0.0170875
0.0171021
0.0171154
0.0171272
0.0171374
0.0171459
0.0171525
0.017157
0.0171596
0.01716
0.0171582
0.0171543
0.0171483
0.0171403
0.0171303
0.0171186
0.0171053
0.0170906
0.0170746
0.0170577
0.0170402
0.0170222
0.017004
0.0169861
0.0169687
0.0169521
0.0169365
0.0169223
0.0169098
0.016899
0.0168902
0.0168835
0.0168792
0.0168771
0.0168773
0.0168798
0.0168848
0.0168919
0.0169009
0.0169118
0.0169244
0.0169384
0.0169536
0.0169697
0.0169865
0.0170038
0.0170212
0.0170385
0.0170555
0.0199819
0.0199983
0.0200138
0.020028
0.0200409
0.0200522
0.0200618
0.0200695
0.0200752
0.0200788
0.0200803
0.0200796
0.0200767
0.0200715
0.0200643
0.020055
0.0200439
0.020031
0.0200166
0.0200008
0.0199839
0.0199662
0.019948
0.0199295
0.019911
0.019893
0.0198756
0.0198592
0.0198441
0.0198305
0.0198186
0.0198087
0.0198008
0.0197955
0.0197922
0.0197913
0.0197928
0.0197967
0.0198029
0.0198111
0.0198213
0.0198333
0.0198469
0.0198618
0.0198778
0.0198946
0.0199119
0.0199296
0.0199473
0.0199649
0.0229378
0.0229547
0.0229707
0.0229857
0.0229995
0.0230118
0.0230225
0.0230314
0.0230383
0.0230433
0.0230461
0.0230468
0.0230452
0.0230414
0.0230354
0.0230273
0.0230172
0.0230054
0.0229918
0.0229768
0.0229605
0.0229433
0.0229253
0.0229069
0.0228884
0.0228701
0.0228524
0.0228354
0.0228196
0.0228051
0.0227923
0.0227813
0.0227722
0.0227656
0.0227609
0.0227587
0.0227588
0.0227613
0.0227661
0.022773
0.022782
0.0227928
0.0228053
0.0228194
0.0228346
0.0228508
0.0228678
0.0228852
0.0229028
0.0229205
0.0259009
0.0259178
0.0259342
0.0259498
0.0259642
0.0259775
0.0259893
0.0259995
0.0260078
0.0260142
0.0260187
0.026021
0.0260212
0.0260191
0.0260149
0.0260085
0.0260001
0.0259897
0.0259776
0.0259639
0.0259488
0.0259325
0.0259154
0.0258976
0.0258795
0.0258614
0.0258436
0.0258265
0.0258101
0.025795
0.0257813
0.0257692
0.025759
0.0257509
0.0257447
0.0257408
0.0257392
0.0257399
0.0257428
0.025748
0.0257552
0.0257643
0.0257752
0.0257877
0.0258016
0.0258167
0.0258327
0.0258493
0.0258664
0.0258837
0.0288358
0.0288526
0.028869
0.0288848
0.0288999
0.028914
0.0289269
0.0289384
0.0289482
0.0289563
0.0289627
0.028967
0.0289692
0.0289693
0.0289673
0.0289631
0.0289569
0.0289485
0.0289384
0.0289266
0.0289132
0.0288985
0.0288827
0.028866
0.0288488
0.0288313
0.0288139
0.0287968
0.0287803
0.0287647
0.0287503
0.0287371
0.0287256
0.0287159
0.0287079
0.0287021
0.0286984
0.0286969
0.0286976
0.0287005
0.0287055
0.0287124
0.0287211
0.0287316
0.0287436
0.0287569
0.0287713
0.0287867
0.0288027
0.0288191
0.0317111
0.0317273
0.0317434
0.0317594
0.0317748
0.0317896
0.0318036
0.0318164
0.0318279
0.0318378
0.0318463
0.0318529
0.0318576
0.0318603
0.0318609
0.0318594
0.0318558
0.0318501
0.0318425
0.0318331
0.0318219
0.0318093
0.0317953
0.0317802
0.0317643
0.0317479
0.0317312
0.0317145
0.0316981
0.0316821
0.031667
0.0316528
0.0316399
0.0316285
0.0316187
0.0316107
0.0316047
0.0316006
0.0315987
0.0315989
0.0316011
0.0316053
0.0316114
0.0316193
0.0316288
0.0316398
0.0316521
0.0316656
0.0316801
0.0316953
0.0344973
0.0345126
0.0345281
0.0345439
0.0345596
0.034575
0.0345899
0.0346041
0.0346173
0.0346292
0.0346401
0.0346492
0.0346567
0.0346623
0.034666
0.0346676
0.0346672
0.0346646
0.0346601
0.0346536
0.0346452
0.034635
0.0346233
0.0346102
0.0345962
0.0345812
0.0345656
0.0345495
0.0345333
0.0345172
0.0345015
0.0344863
0.034472
0.0344589
0.0344471
0.0344367
0.0344281
0.0344213
0.0344164
0.0344134
0.0344124
0.0344134
0.0344164
0.0344212
0.0344278
0.034436
0.0344457
0.0344568
0.0344692
0.0344829
0.0371681
0.0371821
0.0371968
0.0372121
0.0372278
0.0372437
0.0372596
0.0372752
0.0372901
0.0373042
0.0373175
0.0373295
0.03734
0.0373489
0.037356
0.0373612
0.0373643
0.0373654
0.0373644
0.0373613
0.0373561
0.0373489
0.0373399
0.0373293
0.0373174
0.0373042
0.0372899
0.0372748
0.037259
0.0372429
0.0372267
0.0372106
0.037195
0.0371801
0.0371662
0.0371533
0.0371418
0.0371319
0.0371237
0.0371173
0.0371128
0.0371102
0.0371095
0.0371108
0.037114
0.0371189
0.0371256
0.0371339
0.0371439
0.0371554
0.0396993
0.0397117
0.0397252
0.0397399
0.0397555
0.0397718
0.0397885
0.0398054
0.0398222
0.0398385
0.0398545
0.0398694
0.0398832
0.0398957
0.0399065
0.0399156
0.0399227
0.0399278
0.0399307
0.0399315
0.0399299
0.0399261
0.0399203
0.0399125
0.039903
0.0398919
0.0398792
0.0398652
0.0398501
0.0398342
0.0398176
0.0398007
0.0397837
0.0397671
0.0397509
0.0397354
0.039721
0.0397078
0.0396961
0.0396859
0.0396775
0.0396709
0.0396663
0.0396636
0.0396629
0.0396642
0.0396674
0.0396725
0.0396796
0.0396887
0.0420728
0.0420834
0.0420957
0.0421096
0.042125
0.0421415
0.042159
0.0421773
0.0421959
0.0422144
0.042233
0.0422511
0.0422682
0.0422843
0.042299
0.0423121
0.0423233
0.0423325
0.0423395
0.0423442
0.0423464
0.0423462
0.0423436
0.0423387
0.0423318
0.0423228
0.0423118
0.042299
0.0422847
0.0422689
0.0422521
0.0422344
0.0422162
0.0421978
0.0421795
0.0421614
0.0421441
0.0421276
0.0421123
0.0420984
0.042086
0.0420753
0.0420666
0.0420598
0.0420552
0.0420526
0.0420521
0.0420539
0.042058
0.0420644
0.044261
0.0442691
0.0442796
0.0442922
0.0443068
0.0443233
0.0443414
0.0443608
0.0443812
0.0444021
0.0444235
0.0444449
0.0444659
0.0444861
0.0445052
0.0445229
0.0445389
0.0445529
0.0445647
0.0445742
0.044581
0.0445851
0.0445866
0.0445854
0.0445818
0.0445757
0.044567
0.0445561
0.0445429
0.0445279
0.0445111
0.0444929
0.0444736
0.0444535
0.0444331
0.0444123
0.0443917
0.0443716
0.0443523
0.0443341
0.0443171
0.0443018
0.0442882
0.0442766
0.0442671
0.0442598
0.0442549
0.0442523
0.0442526
0.0442556
0.046246
0.0462516
0.0462601
0.0462713
0.0462852
0.0463016
0.0463203
0.0463409
0.046363
0.0463863
0.0464106
0.0464354
0.0464602
0.0464845
0.0465081
0.0465305
0.0465513
0.0465702
0.0465869
0.0466011
0.0466125
0.046621
0.0466265
0.0466291
0.0466288
0.0466255
0.0466193
0.0466101
0.0465983
0.0465839
0.0465672
0.0465485
0.0465281
0.0465063
0.0464837
0.0464602
0.0464364
0.0464127
0.0463894
0.0463668
0.0463453
0.0463253
0.0463068
0.0462903
0.046276
0.046264
0.0462545
0.0462476
0.0462441
0.0462436
0.0480163
0.0480192
0.0480255
0.0480352
0.0480483
0.0480645
0.0480837
0.0481054
0.0481294
0.0481552
0.0481825
0.0482108
0.0482396
0.0482683
0.0482966
0.0483239
0.0483499
0.048374
0.0483959
0.0484152
0.0484315
0.0484448
0.0484547
0.0484613
0.0484647
0.0484645
0.0484608
0.0484538
0.0484434
0.0484298
0.0484133
0.0483941
0.0483726
0.0483492
0.0483243
0.048298
0.0482708
0.0482433
0.0482157
0.0481885
0.0481622
0.0481371
0.0481135
0.0480918
0.0480722
0.0480552
0.0480408
0.0480294
0.0480217
0.0480173
0.0495591
0.0495589
0.0495628
0.0495708
0.0495828
0.0495987
0.0496183
0.0496412
0.049667
0.0496953
0.0497257
0.0497577
0.0497907
0.0498241
0.0498574
0.04989
0.0499214
0.0499511
0.0499785
0.0500033
0.050025
0.0500434
0.0500581
0.0500693
0.0500767
0.0500801
0.0500793
0.0500746
0.0500659
0.0500534
0.0500372
0.0500176
0.0499951
0.0499699
0.0499426
0.0499134
0.0498827
0.049851
0.0498188
0.0497867
0.0497552
0.0497247
0.0496955
0.0496682
0.0496431
0.0496206
0.049601
0.0495846
0.0495723
0.0495637
0.0508605
0.0508569
0.050858
0.0508639
0.0508747
0.0508902
0.05091
0.050934
0.0509617
0.0509927
0.0510263
0.0510622
0.0510996
0.051138
0.0511766
0.0512149
0.0512522
0.0512879
0.0513215
0.0513523
0.0513799
0.051404
0.0514242
0.0514405
0.0514525
0.0514598
0.0514625
0.0514604
0.0514537
0.0514424
0.0514267
0.0514069
0.0513832
0.0513563
0.0513265
0.0512941
0.0512595
0.0512233
0.0511862
0.0511486
0.0511116
0.0510752
0.05104
0.0510066
0.0509753
0.0509468
0.0509215
0.0508998
0.0508823
0.0508692
0.0519071
0.0518995
0.0518975
0.0519011
0.0519104
0.0519252
0.0519453
0.0519703
0.0519999
0.0520335
0.0520707
0.0521107
0.0521529
0.0521965
0.0522409
0.0522855
0.0523293
0.0523717
0.0524119
0.0524494
0.0524835
0.0525138
0.0525399
0.0525615
0.0525783
0.0525898
0.052596
0.0525967
0.0525921
0.0525822
0.0525671
0.0525471
0.0525226
0.0524941
0.0524619
0.0524264
0.052388
0.0523474
0.0523052
0.0522622
0.052219
0.0521762
0.0521343
0.0520942
0.0520561
0.052021
0.0519893
0.0519616
0.0519386
0.0519202
0.052686
0.0526741
0.0526684
0.0526693
0.0526768
0.0526908
0.0527109
0.052737
0.0527685
0.0528051
0.052846
0.0528906
0.0529379
0.0529873
0.0530379
0.0530889
0.0531394
0.0531886
0.0532357
0.0532801
0.0533209
0.0533577
0.0533898
0.0534171
0.0534388
0.0534548
0.0534649
0.0534686
0.0534662
0.0534578
0.0534435
0.0534235
0.0533981
0.053368
0.0533337
0.0532952
0.053253
0.053208
0.0531608
0.0531121
0.0530628
0.0530135
0.0529649
0.0529179
0.0528731
0.052831
0.0527925
0.052758
0.0527285
0.0527043
0.0531876
0.0531709
0.0531612
0.0531589
0.0531642
0.0531771
0.0531973
0.0532244
0.0532581
0.0532977
0.0533424
0.0533915
0.0534442
0.0534995
0.0535566
0.0536143
0.0536718
0.0537281
0.0537824
0.0538339
0.0538818
0.0539253
0.053964
0.053997
0.0540241
0.0540448
0.0540588
0.054066
0.0540663
0.0540597
0.0540464
0.0540265
0.0540002
0.0539684
0.0539318
0.0538901
0.0538442
0.0537947
0.0537424
0.053688
0.0536324
0.0535764
0.0535209
0.0534667
0.0534147
0.0533654
0.0533197
0.0532782
0.0532418
0.0532115
0.0534033
0.0533813
0.0533669
0.0533607
0.0533635
0.053375
0.0533951
0.0534235
0.0534595
0.0535026
0.0535514
0.0536053
0.0536638
0.0537256
0.0537898
0.0538551
0.0539201
0.053984
0.054046
0.0541051
0.0541605
0.0542114
0.0542567
0.054296
0.0543288
0.0543547
0.0543732
0.0543841
0.0543873
0.0543828
0.0543707
0.054351
0.0543239
0.0542906
0.0542514
0.0542064
0.0541564
0.0541021
0.0540443
0.0539841
0.0539219
0.0538587
0.0537958
0.0537339
0.053674
0.053617
0.0535635
0.0535143
0.0534707
0.0534334
0.053324
0.0532958
0.0532765
0.0532667
0.0532668
0.0532769
0.0532968
0.053326
0.0533642
0.0534104
0.0534638
0.0535234
0.0535888
0.0536586
0.0537314
0.0538058
0.0538793
0.0539516
0.054022
0.0540897
0.0541535
0.0542124
0.0542651
0.0543114
0.0543505
0.054382
0.0544054
0.0544205
0.054427
0.0544247
0.0544139
0.0543945
0.0543669
0.0543321
0.0542902
0.0542417
0.0541872
0.0541277
0.054064
0.0539971
0.0539277
0.0538566
0.0537853
0.0537149
0.0536464
0.0535808
0.0535181
0.0534596
0.0534069
0.0533614
0.0529495
0.052915
0.0528905
0.0528769
0.0528741
0.0528826
0.0529021
0.0529323
0.0529726
0.0530221
0.05308
0.0531453
0.0532172
0.0532944
0.0533754
0.0534581
0.0535408
0.0536234
0.0537043
0.0537824
0.0538565
0.0539252
0.0539863
0.0540405
0.0540868
0.0541247
0.0541537
0.0541734
0.0541835
0.0541839
0.0541746
0.0541556
0.0541275
0.0540909
0.0540461
0.0539937
0.0539343
0.053869
0.0537986
0.0537241
0.0536467
0.0535658
0.0534843
0.0534033
0.0533242
0.0532481
0.0531762
0.0531089
0.0530476
0.0529941
0.0522874
0.0522479
0.0522192
0.0522021
0.0521971
0.0522042
0.0522234
0.0522541
0.0522959
0.0523479
0.0524093
0.052479
0.0525558
0.0526386
0.0527257
0.0528158
0.0529071
0.0529991
0.0530896
0.0531772
0.0532605
0.0533384
0.0534094
0.0534732
0.0535284
0.0535744
0.0536105
0.0536362
0.0536509
0.0536546
0.0536473
0.0536288
0.0536001
0.0535613
0.0535128
0.0534553
0.0533896
0.0533169
0.053238
0.0531544
0.0530671
0.0529774
0.0528866
0.0527961
0.0527072
0.0526213
0.0525405
0.0524654
0.0523974
0.0523377
0.0513708
0.0513262
0.0512933
0.0512727
0.0512655
0.0512712
0.0512899
0.0513211
0.0513644
0.051419
0.0514839
0.0515579
0.0516398
0.0517282
0.0518216
0.0519182
0.0520164
0.052115
0.0522123
0.0523068
0.0523969
0.0524812
0.0525586
0.0526282
0.0526893
0.0527406
0.0527818
0.0528118
0.0528299
0.052836
0.0528302
0.0528123
0.0527833
0.0527431
0.0526923
0.0526314
0.0525614
0.0524837
0.0523996
0.0523103
0.0522171
0.052121
0.0520236
0.0519262
0.0518303
0.0517375
0.0516496
0.0515676
0.0514928
0.0514268
0.05023
0.0501813
0.0501449
0.0501212
0.0501118
0.0501163
0.0501345
0.0501662
0.0502107
0.0502674
0.0503353
0.0504127
0.0504986
0.0505915
0.0506899
0.0507915
0.0508947
0.0509985
0.0511013
0.0512012
0.0512964
0.0513856
0.0514676
0.0515417
0.0516079
0.0516642
0.0517095
0.0517429
0.0517638
0.0517719
0.0517674
0.0517501
0.0517209
0.0516796
0.0516269
0.0515635
0.0514903
0.0514085
0.0513194
0.0512255
0.0511279
0.0510272
0.0509248
0.050822
0.0507205
0.0506223
0.0505291
0.0504421
0.0503618
0.0502907
0.0488615
0.0488086
0.0487686
0.0487424
0.0487309
0.0487342
0.0487519
0.0487838
0.0488294
0.0488879
0.0489583
0.0490391
0.0491292
0.0492269
0.0493305
0.0494383
0.0495484
0.049659
0.0497688
0.0498758
0.0499784
0.050075
0.050164
0.0502448
0.0503161
0.0503764
0.050425
0.0504612
0.0504844
0.0504944
0.050491
0.0504743
0.0504449
0.0504028
0.0503487
0.0502833
0.0502075
0.0501225
0.0500295
0.0499298
0.0498255
0.0497176
0.0496079
0.0494978
0.0493892
0.0492839
0.0491837
0.0490897
0.0490035
0.048927
0.0472977
0.0472413
0.0471985
0.04717
0.0471568
0.0471587
0.0471758
0.0472079
0.0472542
0.047314
0.0473864
0.0474699
0.0475631
0.0476645
0.0477721
0.0478844
0.0479993
0.0481139
0.048228
0.0483395
0.0484465
0.0485475
0.0486409
0.0487255
0.0488003
0.0488639
0.0489157
0.0489547
0.0489802
0.0489919
0.0489896
0.0489736
0.0489441
0.0489013
0.048846
0.0487787
0.0487005
0.0486125
0.0485164
0.0484134
0.0483052
0.0481932
0.0480792
0.0479647
0.0478516
0.0477419
0.0476375
0.0475387
0.0474479
0.0473672
0.0455277
0.0454679
0.0454222
0.0453914
0.0453764
0.0453771
0.0453936
0.0454257
0.0454728
0.0455339
0.0456081
0.0456939
0.0457901
0.0458949
0.0460064
0.0461229
0.0462423
0.0463624
0.0464818
0.0465986
0.0467109
0.046817
0.0469154
0.0470047
0.0470837
0.0471513
0.0472062
0.0472478
0.0472755
0.0472888
0.0472877
0.0472723
0.0472428
0.0471995
0.047143
0.0470741
0.0469937
0.046903
0.0468034
0.0466965
0.0465838
0.046467
0.0463479
0.0462281
0.0461097
0.0459945
0.0458844
0.0457809
0.0456858
0.0456009
0.0435588
0.043496
0.0434475
0.0434145
0.0433977
0.0433972
0.0434131
0.043445
0.0434925
0.0435547
0.0436306
0.0437185
0.0438172
0.043925
0.04404
0.0441602
0.0442835
0.0444079
0.0445317
0.0446528
0.0447694
0.0448797
0.0449821
0.0450753
0.0451577
0.0452284
0.0452861
0.04533
0.0453596
0.0453744
0.0453743
0.0453594
0.04533
0.0452862
0.045229
0.0451589
0.0450769
0.0449841
0.0448819
0.0447719
0.0446558
0.0445353
0.0444121
0.0442882
0.0441654
0.0440456
0.043931
0.0438233
0.0437241
0.0436355
0.0413854
0.0413196
0.0412685
0.0412333
0.0412146
0.0412128
0.0412278
0.0412595
0.0413072
0.0413702
0.0414473
0.0415371
0.0416383
0.0417487
0.0418666
0.0419899
0.0421166
0.0422446
0.042372
0.0424968
0.0426171
0.0427309
0.0428368
0.0429331
0.0430185
0.0430918
0.0431519
0.043198
0.0432293
0.0432457
0.0432467
0.0432326
0.0432034
0.0431596
0.043102
0.043031
0.0429477
0.0428532
0.0427491
0.0426368
0.042518
0.0423944
0.042268
0.0421405
0.042014
0.0418904
0.0417718
0.0416603
0.0415575
0.0414654
0.0389763
0.0389073
0.0388534
0.0388158
0.038795
0.0387916
0.0388055
0.0388367
0.0388844
0.0389479
0.0390262
0.0391177
0.0392208
0.0393336
0.0394541
0.0395803
0.0397102
0.0398415
0.0399723
0.0401005
0.0402241
0.0403413
0.0404504
0.0405497
0.0406379
0.0407138
0.0407762
0.0408243
0.0408576
0.0408754
0.0408777
0.0408646
0.040836
0.0407924
0.0407347
0.0406633
0.0405792
0.0404836
0.040378
0.0402638
0.0401426
0.0400163
0.0398869
0.0397562
0.0396262
0.039499
0.0393769
0.0392617
0.0391553
0.0390596
0.0362602
0.0361873
0.03613
0.0360892
0.0360658
0.0360603
0.0360727
0.036103
0.0361506
0.0362145
0.0362939
0.036387
0.0364922
0.0366075
0.036731
0.0368604
0.0369937
0.0371287
0.0372632
0.0373952
0.0375225
0.0376434
0.037756
0.0378587
0.03795
0.0380288
0.0380939
0.0381446
0.03818
0.0381998
0.0382037
0.0381918
0.0381642
0.0381212
0.0380637
0.0379921
0.0379074
0.0378109
0.0377039
0.0375879
0.0374645
0.0373356
0.0372031
0.0370689
0.0369352
0.0368041
0.0366777
0.0365582
0.0364475
0.0363476
0.0330946
0.0330164
0.0329542
0.0329091
0.0328821
0.0328737
0.0328839
0.0329129
0.0329601
0.0330245
0.0331052
0.0332004
0.0333084
0.0334271
0.0335544
0.0336882
0.0338261
0.0339659
0.0341053
0.0342422
0.0343745
0.0345001
0.0346174
0.0347245
0.0348201
0.0349029
0.0349716
0.0350256
0.0350641
0.0350865
0.0350926
0.0350827
0.0350564
0.0350144
0.0349573
0.0348856
0.0348004
0.0347028
0.0345941
0.0344758
0.0343496
0.0342173
0.0340808
0.0339422
0.0338036
0.0336671
0.0335352
0.0334099
0.0332933
0.0331876
0.0292296
0.0291442
0.0290753
0.0290244
0.0289924
0.0289802
0.0289874
0.0290148
0.0290616
0.0291268
0.0292093
0.0293074
0.0294192
0.0295425
0.0296752
0.0298149
0.0299593
0.0301058
0.0302521
0.0303959
0.030535
0.0306674
0.030791
0.0309043
0.0310057
0.0310939
0.0311677
0.0312263
0.0312689
0.031295
0.0313041
0.0312968
0.0312723
0.0312316
0.031175
0.0311032
0.0310172
0.030918
0.0308069
0.0306854
0.0305552
0.0304181
0.030276
0.0301311
0.0299856
0.0298417
0.0297019
0.0295686
0.029444
0.0293303
0.0243446
0.0242517
0.024176
0.024119
0.0240819
0.0240659
0.02407
0.0240959
0.0241423
0.0242082
0.0242925
0.0243935
0.0245091
0.0246371
0.0247753
0.0249212
0.0250721
0.0252256
0.0253792
0.0255302
0.0256765
0.0258158
0.025946
0.0260657
0.0261732
0.0262671
0.0263463
0.0264099
0.026457
0.0264871
0.0264995
0.0264952
0.0264729
0.0264336
0.0263776
0.0263057
0.0262191
0.0261182
0.0260046
0.0258799
0.0257454
0.0256031
0.025455
0.0253033
0.0251504
0.0249986
0.0248505
0.0247086
0.0245754
0.0244533
0.018483
0.0183935
0.0183207
0.0182657
0.0182298
0.0182138
0.0182171
0.0182412
0.0182847
0.018347
0.0184267
0.0185223
0.0186318
0.0187535
0.018885
0.0190241
0.0191684
0.0193154
0.0194628
0.0196081
0.0197491
0.0198836
0.0200096
0.0201257
0.0202303
0.0203222
0.0204001
0.0204629
0.0205097
0.02054
0.0205534
0.0205506
0.0205303
0.0204935
0.0204406
0.0203721
0.0202892
0.0201924
0.0200832
0.0199632
0.0198337
0.0196965
0.0195536
0.0194071
0.0192596
0.0191131
0.0189703
0.0188335
0.0187052
0.0185876
0.0122255
0.0121596
0.0121065
0.0120672
0.0120422
0.0120318
0.0120364
0.0120562
0.0120903
0.0121383
0.0121993
0.0122721
0.0123553
0.0124475
0.0125473
0.012653
0.0127628
0.0128752
0.0129882
0.0131003
0.0132098
0.0133153
0.0134152
0.0135079
0.0135919
0.0136659
0.0137287
0.0137793
0.0138168
0.013841
0.0138516
0.0138486
0.0138313
0.0138004
0.0137563
0.0136994
0.0136307
0.0135513
0.0134623
0.0133651
0.0132612
0.0131523
0.0130401
0.012926
0.0128121
0.0126998
0.012591
0.0124874
0.0123909
0.0123031
0.00673281
0.00670099
0.0066761
0.00665853
0.00664843
0.0066459
0.00665136
0.00666443
0.00668483
0.0067122
0.00674606
0.00678578
0.0068305
0.00687961
0.00693234
0.00698766
0.00704499
0.00710337
0.00716165
0.00721923
0.00727526
0.00732887
0.00737895
0.0074249
0.0074658
0.00750124
0.00753118
0.00755492
0.00757205
0.00758235
0.00758577
0.00758191
0.00757098
0.00755309
0.00752851
0.00749758
0.00746074
0.00741856
0.00737143
0.00731998
0.0072653
0.00720779
0.00714871
0.00708914
0.00702982
0.00697177
0.00691604
0.00686345
0.00681478
0.00677103
0.00307119
0.00306613
0.00306277
0.00306114
0.00306128
0.00306309
0.00306654
0.00307156
0.00307805
0.00308592
0.00309507
0.0031055
0.00311713
0.00312969
0.00314295
0.00315677
0.00317076
0.00318495
0.00319895
0.00321262
0.00322573
0.00323816
0.00324967
0.00326008
0.00326923
0.00327696
0.0032831
0.00328753
0.00329027
0.00329114
0.00329015
0.00328728
0.00328259
0.00327613
0.003268
0.00325833
0.00324727
0.00323504
0.00322187
0.00320792
0.00319342
0.00317864
0.00316381
0.00314913
0.00313489
0.00312133
0.0031086
0.00309704
0.00308683
0.00307814
0.00229576
0.00229569
0.00229569
0.00229578
0.00229595
0.00229621
0.00229654
0.00229695
0.00229741
0.00229794
0.00229851
0.00229912
0.00229974
0.00230038
0.00230101
0.00230162
0.00230221
0.00230274
0.00230324
0.00230368
0.00230406
0.00230438
0.00230464
0.00230482
0.00230494
0.00230499
0.00230497
0.00230489
0.00230474
0.00230454
0.00230428
0.00230398
0.00230362
0.00230323
0.00230279
0.00230233
0.00230183
0.00230132
0.00230079
0.00230025
0.00229971
0.00229917
0.00229864
0.00229813
0.00229766
0.00229721
0.00229681
0.00229645
0.00229615
0.00229592
0.000320492
0.000320818
0.000321108
0.000321358
0.000321564
0.000321724
0.000321835
0.000321896
0.000321905
0.000321864
0.000321771
0.000321628
0.000321436
0.000321199
0.000320919
0.000320599
0.000320245
0.000319862
0.000319454
0.000319028
0.000318591
0.000318149
0.00031771
0.000317281
0.00031687
0.000316482
0.000316126
0.000315807
0.000315532
0.000315305
0.00031513
0.000315011
0.00031495
0.000314947
0.000315002
0.000315116
0.000315283
0.000315504
0.000315772
0.000316082
0.000316429
0.000316807
0.000317209
0.000317628
0.000318058
0.000318492
0.000318922
0.000319344
0.000319749
0.000320134
0.000521826
0.000522598
0.000523274
0.000523844
0.000524301
0.000524637
0.000524848
0.000524932
0.000524884
0.000524714
0.000524412
0.000523987
0.000523445
0.000522795
0.000522044
0.000521202
0.000520282
0.000519298
0.000518264
0.000517195
0.000516109
0.000515023
0.000513954
0.000512919
0.000511936
0.000511021
0.000510191
0.00050946
0.000508841
0.000508345
0.00050798
0.000507754
0.00050767
0.000507731
0.000507931
0.000508273
0.000508743
0.000509342
0.000510053
0.000510862
0.000511756
0.000512721
0.000513739
0.000514795
0.000515871
0.000516949
0.000518014
0.000519049
0.000520039
0.000520969
0.00119588
0.00119772
0.00119935
0.00120074
0.00120186
0.00120271
0.00120328
0.00120355
0.00120351
0.00120319
0.00120256
0.00120165
0.00120045
0.001199
0.0011973
0.00119538
0.00119327
0.001191
0.0011886
0.00118612
0.00118357
0.00118102
0.0011785
0.00117604
0.0011737
0.00117151
0.00116951
0.00116774
0.00116623
0.001165
0.00116407
0.00116347
0.00116321
0.00116328
0.00116369
0.00116442
0.00116547
0.00116682
0.00116843
0.00117029
0.00117234
0.00117457
0.00117693
0.00117938
0.00118188
0.0011844
0.00118689
0.00118932
0.00119165
0.00119384
0.00214975
0.00215305
0.00215598
0.00215851
0.00216061
0.00216224
0.00216338
0.00216402
0.00216412
0.00216374
0.00216282
0.00216139
0.00215947
0.0021571
0.00215428
0.00215107
0.0021475
0.00214364
0.00213953
0.00213524
0.00213084
0.00212639
0.00212197
0.00211766
0.00211351
0.00210961
0.00210603
0.00210282
0.00210005
0.00209776
0.002096
0.0020948
0.00209417
0.00209414
0.00209468
0.00209581
0.00209747
0.00209968
0.00210236
0.00210547
0.00210894
0.00211272
0.00211675
0.00212095
0.00212527
0.00212962
0.00213395
0.00213818
0.00214227
0.00214614
0.00336342
0.0033685
0.00337305
0.00337702
0.00338035
0.00338299
0.00338491
0.00338609
0.00338646
0.00338612
0.00338495
0.00338302
0.00338034
0.00337696
0.0033729
0.00336823
0.00336301
0.00335732
0.00335123
0.00334484
0.00333825
0.00333157
0.00332489
0.00331834
0.00331202
0.00330605
0.00330052
0.00329554
0.0032912
0.00328757
0.00328472
0.0032827
0.00328154
0.00328129
0.00328188
0.00328336
0.00328565
0.00328879
0.00329265
0.00329716
0.00330223
0.0033078
0.00331375
0.00331999
0.00332642
0.00333294
0.00333944
0.00334582
0.00335201
0.0033579
0.00485815
0.00486513
0.00487142
0.00487695
0.00488164
0.00488542
0.00488825
0.00489008
0.00489083
0.00489062
0.00488931
0.00488696
0.00488359
0.00487927
0.00487401
0.00486791
0.00486104
0.00485351
0.00484542
0.00483689
0.00482806
0.00481907
0.00481006
0.00480118
0.00479258
0.00478441
0.00477682
0.00476994
0.0047639
0.00475879
0.00475472
0.00475175
0.00474994
0.00474934
0.00474988
0.00475162
0.00475446
0.00475846
0.00476344
0.00476931
0.00477598
0.00478332
0.00479121
0.00479952
0.00480811
0.00481684
0.00482558
0.00483421
0.00484259
0.00485061
0.00663277
0.00664167
0.00664976
0.00665692
0.00666305
0.00666806
0.0066719
0.0066745
0.00667576
0.00667582
0.0066745
0.00667187
0.00666796
0.00666282
0.0066565
0.00664909
0.0066407
0.00663146
0.00662147
0.00661089
0.0065999
0.00658866
0.00657735
0.00656617
0.0065553
0.00654493
0.00653524
0.00652642
0.0065186
0.00651195
0.00650655
0.00650253
0.00649993
0.00649887
0.00649921
0.00650107
0.00650431
0.00650902
0.00651499
0.00652208
0.0065302
0.00653919
0.00654891
0.00655918
0.00656985
0.00658073
0.00659166
0.00660248
0.00661304
0.00662318
0.00866551
0.00867617
0.00868591
0.00869459
0.00870209
0.00870831
0.00871317
0.0087166
0.00871846
0.00871891
0.00871775
0.00871504
0.00871083
0.00870513
0.00869804
0.00868964
0.00868005
0.00866942
0.00865787
0.0086456
0.00863278
0.00861963
0.00860635
0.00859316
0.00858029
0.00856796
0.00855639
0.00854579