/*--------------------------------*- C++ -*----------------------------------*\
| =========                 |                                                 |
| \\      /  F ield         | OpenFOAM: The Open Source CFD Toolbox           |
|  \\    /   O peration     | Version:  4.x                                   |
|   \\  /    A nd           | Web:      www.OpenFOAM.org                      |
|    \\/     M anipulation  |                                                 |
\*---------------------------------------------------------------------------*/
FoamFile
{
    version     2.0;
    format      ascii;
    class       volScalarField;
    location    "90";
    object      p;
}
// * * * * * * * * * * * * * * * * * * * * * * * * * * * * * * * * * * * * * //

dimensions      [0 2 -2 0 0 0 0];

internalField   nonuniform List<scalar> 
237650
(
-0.0905024
-0.0910578
-0.0915515
-0.091976
-0.092325
-0.0925933
-0.0927767
-0.0928728
-0.0928795
-0.0927972
-0.0926266
-0.0923705
-0.0920317
-0.0916159
-0.0911293
-0.0905786
-0.0899726
-0.0893201
-0.0886313
-0.0879168
-0.0871878
-0.0864559
-0.0857325
-0.0850295
-0.0843583
-0.0837299
-0.0831546
-0.082642
-0.0822007
-0.0818381
-0.08156
-0.0813714
-0.0812752
-0.0812732
-0.0813648
-0.0815489
-0.0818217
-0.0821792
-0.0826147
-0.0831211
-0.0836897
-0.0843113
-0.0849756
-0.0856719
-0.0863892
-0.0871158
-0.0878407
-0.0885524
-0.0892402
-0.0898934
-0.0902229
-0.090778
-0.0912712
-0.0916955
-0.0920442
-0.0923123
-0.0924957
-0.0925917
-0.0925985
-0.0925164
-0.092346
-0.0920901
-0.0917517
-0.0913362
-0.0908501
-0.0903
-0.0896944
-0.0890425
-0.0883543
-0.0876404
-0.086912
-0.0861806
-0.0854578
-0.0847553
-0.0840846
-0.0834567
-0.0828818
-0.0823696
-0.0819285
-0.0815662
-0.0812882
-0.0810998
-0.0810036
-0.0810016
-0.081093
-0.0812769
-0.0815494
-0.0819067
-0.0823417
-0.0828477
-0.0834158
-0.0840369
-0.0847007
-0.0853964
-0.0861131
-0.0868391
-0.0875634
-0.0882746
-0.0889617
-0.0896145
-0.0884209
-0.0889729
-0.0894635
-0.0898854
-0.0902322
-0.090499
-0.0906815
-0.0907771
-0.090784
-0.0907025
-0.0905333
-0.090279
-0.0899427
-0.0895297
-0.0890465
-0.0884996
-0.0878976
-0.0872494
-0.0865652
-0.0858554
-0.0851312
-0.0844039
-0.0836852
-0.0829866
-0.0823196
-0.0816951
-0.0811234
-0.080614
-0.0801753
-0.0798149
-0.0795384
-0.0793509
-0.0792551
-0.0792529
-0.0793437
-0.0795264
-0.0797972
-0.0801523
-0.0805848
-0.0810878
-0.0816526
-0.0822701
-0.08293
-0.0836218
-0.0843343
-0.0850562
-0.0857764
-0.0864835
-0.0871668
-0.0878159
-0.0843463
-0.0848918
-0.0853766
-0.0857936
-0.0861365
-0.0864002
-0.0865806
-0.0866753
-0.0866823
-0.0866019
-0.0864347
-0.0861836
-0.0858515
-0.0854435
-0.0849661
-0.0844258
-0.0838311
-0.0831907
-0.0825147
-0.0818133
-0.0810977
-0.0803791
-0.0796689
-0.0789786
-0.0783195
-0.0777024
-0.0771374
-0.076634
-0.0762004
-0.0758442
-0.0755708
-0.0753854
-0.0752906
-0.0752883
-0.0753779
-0.0755582
-0.0758258
-0.0761765
-0.0766037
-0.0771006
-0.0776585
-0.0782686
-0.0789206
-0.079604
-0.0803081
-0.0810214
-0.0817329
-0.0824317
-0.0831069
-0.0837483
-0.0788462
-0.0793843
-0.0798627
-0.0802741
-0.0806124
-0.0808726
-0.0810507
-0.0811442
-0.0811512
-0.081072
-0.0809073
-0.0806597
-0.0803321
-0.0799298
-0.0794589
-0.078926
-0.0783394
-0.0777078
-0.077041
-0.0763492
-0.0756433
-0.0749345
-0.074234
-0.073553
-0.0729029
-0.0722942
-0.0717368
-0.0712402
-0.0708124
-0.0704609
-0.0701912
-0.0700082
-0.0699145
-0.0699121
-0.0700003
-0.0701781
-0.0704419
-0.0707877
-0.0712089
-0.071699
-0.0722493
-0.072851
-0.073494
-0.0741682
-0.0748626
-0.0755662
-0.0762681
-0.0769574
-0.0776235
-0.0782563
-0.0722318
-0.0727623
-0.0732338
-0.0736394
-0.073973
-0.0742295
-0.0744052
-0.0744974
-0.0745044
-0.0744265
-0.0742642
-0.0740202
-0.0736974
-0.0733009
-0.0728369
-0.0723118
-0.0717337
-0.0711111
-0.0704539
-0.0697721
-0.0690764
-0.0683777
-0.0676873
-0.0670161
-0.0663753
-0.0657753
-0.0652259
-0.0647363
-0.0643147
-0.0639681
-0.0637022
-0.0635217
-0.0634293
-0.0634268
-0.0635136
-0.0636887
-0.0639487
-0.0642893
-0.0647044
-0.0651873
-0.0657296
-0.0663226
-0.0669564
-0.0676208
-0.0683052
-0.0689988
-0.0696906
-0.07037
-0.0710266
-0.0716503
-0.0646973
-0.0652199
-0.0656845
-0.0660841
-0.0664127
-0.0666655
-0.0668386
-0.0669295
-0.0669365
-0.0668597
-0.0666999
-0.0664597
-0.0661417
-0.0657512
-0.0652942
-0.0647768
-0.0642074
-0.0635941
-0.0629468
-0.0622751
-0.0615898
-0.0609015
-0.0602214
-0.0595602
-0.0589289
-0.0583378
-0.0577965
-0.0573142
-0.0568988
-0.0565573
-0.0562953
-0.0561174
-0.0560262
-0.0560237
-0.0561092
-0.0562816
-0.0565376
-0.0568731
-0.0572819
-0.0577576
-0.0582918
-0.0588759
-0.0595002
-0.0601547
-0.060829
-0.0615122
-0.0621938
-0.0628631
-0.0635099
-0.0641244
-0.0564344
-0.056949
-0.0574064
-0.0577998
-0.0581233
-0.0583722
-0.0585427
-0.0586322
-0.0586391
-0.0585635
-0.0584062
-0.0581697
-0.0578567
-0.0574722
-0.0570223
-0.056513
-0.0559523
-0.0553486
-0.0547113
-0.05405
-0.0533752
-0.0526976
-0.052028
-0.051377
-0.0507555
-0.0501735
-0.0496406
-0.0491657
-0.0487566
-0.0484203
-0.0481623
-0.0479871
-0.0478975
-0.0478948
-0.0479789
-0.0481487
-0.0484007
-0.048731
-0.0491335
-0.0496018
-0.0501278
-0.0507029
-0.0513175
-0.051962
-0.0526258
-0.0532985
-0.0539696
-0.0546286
-0.0552654
-0.0558704
-0.0475844
-0.0480906
-0.0485405
-0.0489275
-0.0492457
-0.0494906
-0.0496582
-0.0497462
-0.049753
-0.0496786
-0.0495238
-0.0492911
-0.0489832
-0.0486049
-0.0481623
-0.0476613
-0.0471098
-0.0465158
-0.0458889
-0.0452384
-0.0445746
-0.043908
-0.0432492
-0.0426088
-0.0419974
-0.0414248
-0.0409006
-0.0404333
-0.0400309
-0.0397001
-0.0394462
-0.0392738
-0.0391854
-0.0391831
-0.0392658
-0.0394328
-0.0396808
-0.0400058
-0.0404017
-0.0408625
-0.0413799
-0.0419457
-0.0425505
-0.0431845
-0.0438376
-0.0444994
-0.0451596
-0.0458079
-0.0464344
-0.0470296
-0.0382452
-0.0387426
-0.0391846
-0.0395648
-0.0398774
-0.0401179
-0.0402825
-0.0403689
-0.0403755
-0.0403024
-0.0401502
-0.0399215
-0.0396189
-0.0392472
-0.0388122
-0.0383199
-0.037778
-0.0371944
-0.0365783
-0.0359391
-0.0352869
-0.0346319
-0.0339846
-0.0333554
-0.0327546
-0.032192
-0.0316768
-0.0312178
-0.0308223
-0.0304973
-0.0302478
-0.0300784
-0.0299915
-0.0299893
-0.0300707
-0.0302348
-0.0304786
-0.030798
-0.0311871
-0.0316399
-0.0321484
-0.0327045
-0.0332988
-0.0339218
-0.0345636
-0.0352139
-0.0358626
-0.0364997
-0.0371153
-0.0377001
-0.0284706
-0.0289584
-0.029392
-0.0297649
-0.0300715
-0.0303073
-0.0304687
-0.0305533
-0.0305597
-0.0304879
-0.0303385
-0.0301141
-0.0298172
-0.0294524
-0.0290257
-0.0285426
-0.0280109
-0.0274384
-0.026834
-0.0262069
-0.0255671
-0.0249245
-0.0242896
-0.0236723
-0.023083
-0.0225311
-0.0220257
-0.0215754
-0.0211875
-0.0208686
-0.020624
-0.0204579
-0.0203729
-0.0203706
-0.0204504
-0.0206115
-0.0208508
-0.0211642
-0.021546
-0.0219903
-0.0224892
-0.0230348
-0.0236179
-0.0242291
-0.0248588
-0.0254969
-0.0261333
-0.0267583
-0.0273622
-0.0279358
-0.0182979
-0.0187754
-0.0191999
-0.0195649
-0.019865
-0.0200958
-0.0202537
-0.0203364
-0.0203426
-0.0202721
-0.0201258
-0.0199059
-0.0196152
-0.0192579
-0.0188401
-0.0183671
-0.0178464
-0.0172858
-0.0166941
-0.0160802
-0.0154537
-0.0148247
-0.014203
-0.0135988
-0.0130218
-0.0124815
-0.0119868
-0.0115459
-0.0111662
-0.0108541
-0.0106146
-0.0104521
-0.0103684
-0.0103668
-0.0104449
-0.0106027
-0.0108371
-0.011144
-0.0115179
-0.0119529
-0.0124415
-0.0129757
-0.0135466
-0.0141452
-0.0147617
-0.0153864
-0.0160095
-0.0166214
-0.0172127
-0.0177743
-0.00776019
-0.00822664
-0.00864119
-0.00899767
-0.00929073
-0.00951611
-0.0096703
-0.00975101
-0.00975692
-0.009688
-0.00954492
-0.00933006
-0.00904598
-0.00869695
-0.00828871
-0.00782665
-0.00731804
-0.00677038
-0.00619242
-0.00559271
-0.00498081
-0.00436637
-0.00375921
-0.00316902
-0.00260548
-0.00207779
-0.00159463
-0.00116406
-0.000793216
-0.00048835
-0.00025448
-9.57927e-05
-1.13075e-05
-1.25125e-05
-8.88907e-05
-0.000243087
-0.000472103
-0.000771896
-0.00113716
-0.00156213
-0.00203941
-0.00256127
-0.00311902
-0.00370369
-0.00430596
-0.0049162
-0.0055249
-0.0061226
-0.00670017
-0.00724879
0.00311803
0.00266357
0.00225969
0.0019124
0.0016269
0.00140738
0.00125723
0.00117864
0.00117294
0.00124016
0.00137963
0.00158906
0.00186589
0.00220598
0.00260378
0.00305399
0.00354951
0.00408309
0.00464621
0.00523049
0.00582664
0.00642521
0.00701668
0.00759161
0.0081406
0.00865463
0.0091253
0.00954475
0.00990598
0.010203
0.0104308
0.0105853
0.0106644
0.0106664
0.010592
0.0104418
0.0102187
0.00992664
0.00957078
0.00915676
0.00869178
0.00818336
0.00763995
0.0070703
0.0064835
0.00588895
0.00529588
0.00471356
0.00415083
0.0036163
0.0142967
0.0138551
0.0134627
0.0131252
0.0128479
0.0126346
0.0124887
0.0124124
0.0124068
0.0124722
0.0126077
0.0128112
0.0130802
0.0134106
0.0137971
0.0142345
0.0147159
0.0152342
0.0157814
0.016349
0.0169282
0.0175097
0.0180842
0.0186427
0.019176
0.0196754
0.0201326
0.02054
0.020891
0.0211795
0.0214008
0.0215509
0.0216273
0.0216298
0.0215576
0.0214117
0.021195
0.0209114
0.0205657
0.0201636
0.0197119
0.019218
0.0186901
0.0181366
0.0175666
0.0169889
0.0164127
0.0158469
0.0153002
0.0147808
0.0257362
0.0253084
0.0249282
0.0246012
0.0243325
0.0241258
0.0239845
0.0239105
0.0239051
0.0239683
0.0240996
0.0242967
0.0245572
0.0248772
0.0252516
0.0256753
0.0261415
0.0266435
0.0271735
0.0277233
0.0282842
0.0288475
0.0294039
0.0299448
0.0304614
0.030945
0.0313878
0.0317825
0.0321224
0.0324019
0.0326163
0.0327617
0.0328362
0.0328384
0.0327685
0.0326274
0.0324176
0.032143
0.0318083
0.0314189
0.0309816
0.0305033
0.029992
0.029456
0.0289038
0.0283443
0.0277861
0.0272381
0.0267084
0.0262052
0.0374014
0.0369882
0.0366209
0.0363051
0.0360454
0.0358458
0.0357092
0.0356376
0.0356323
0.0356933
0.0358199
0.0360102
0.0362617
0.0365706
0.0369321
0.0373411
0.0377911
0.0382758
0.0387875
0.0393182
0.0398598
0.0404036
0.0409408
0.0414631
0.0419619
0.0424288
0.0428563
0.0432374
0.0435656
0.0438355
0.0440426
0.0441832
0.0442552
0.0442575
0.0441902
0.0440541
0.0438518
0.0435869
0.043264
0.0428882
0.0424661
0.0420044
0.0415109
0.0409934
0.0404603
0.0399201
0.0393811
0.0388518
0.0383403
0.0378544
0.0492458
0.048848
0.0484944
0.0481902
0.0479401
0.0477478
0.0476161
0.047547
0.0475417
0.0476003
0.047722
0.0479051
0.0481469
0.0484441
0.0487919
0.0491854
0.0496184
0.0500847
0.0505771
0.0510877
0.0516087
0.052132
0.052649
0.0531516
0.0536315
0.0540808
0.0544923
0.054859
0.0551749
0.0554347
0.0556341
0.0557696
0.0558392
0.0558416
0.055777
0.0556464
0.055452
0.0551974
0.0548869
0.0545255
0.0541195
0.0536755
0.0532008
0.0527029
0.05219
0.0516701
0.0511515
0.050642
0.0501496
0.0496819
0.0612223
0.0608406
0.0605012
0.0602093
0.0599692
0.0597845
0.0596579
0.0595914
0.0595861
0.0596421
0.0597586
0.059934
0.0601657
0.0604505
0.0607839
0.0611611
0.0615763
0.0620233
0.0624953
0.0629849
0.0634844
0.0639861
0.0644818
0.0649637
0.065424
0.0658548
0.0662494
0.0666011
0.0669041
0.0671534
0.0673448
0.067475
0.0675419
0.0675446
0.067483
0.067358
0.067172
0.0669282
0.0666308
0.0662847
0.0658957
0.0654701
0.0650151
0.0645379
0.0640462
0.0635477
0.0630503
0.0625617
0.0620894
0.0616407
0.0732881
0.0729231
0.0725985
0.0723193
0.0720895
0.0719127
0.0717914
0.0717276
0.0717222
0.0717754
0.0718865
0.0720538
0.072275
0.0725469
0.0728652
0.0732255
0.0736219
0.0740489
0.0744998
0.0749674
0.0754445
0.0759237
0.0763972
0.0768577
0.0772974
0.077709
0.0780861
0.0784222
0.0787119
0.0789502
0.0791333
0.079258
0.0793223
0.0793252
0.0792667
0.0791478
0.0789705
0.078738
0.0784543
0.078124
0.0777527
0.0773465
0.076912
0.0764563
0.0759866
0.0755104
0.0750352
0.0745683
0.0741169
0.073688
0.0854048
0.0850571
0.0847479
0.0844817
0.0842626
0.0840939
0.0839782
0.083917
0.0839115
0.0839618
0.0840672
0.0842261
0.0844364
0.0846949
0.0849977
0.0853404
0.0857176
0.0861238
0.0865527
0.0869976
0.0874516
0.0879075
0.0883581
0.0887964
0.0892149
0.0896067
0.0899656
0.0902857
0.0905615
0.0907886
0.0909631
0.0910821
0.0911437
0.0911469
0.0910917
0.090979
0.0908108
0.09059
0.0903205
0.0900066
0.0896536
0.0892674
0.0888542
0.0884207
0.0879738
0.0875207
0.0870684
0.086624
0.0861942
0.0857858
0.0975328
0.097203
0.0969094
0.0966567
0.0964486
0.0962883
0.0961781
0.0961197
0.0961141
0.0961613
0.0962609
0.0964112
0.0966102
0.096855
0.0971417
0.0974662
0.0978235
0.0982084
0.0986147
0.0990363
0.0994665
0.0998985
0.100326
0.100741
0.101138
0.101509
0.101849
0.102153
0.102415
0.10263
0.102796
0.102909
0.102968
0.102971
0.102919
0.102813
0.102654
0.102446
0.102191
0.101894
0.10156
0.101194
0.100803
0.100392
0.0999685
0.0995391
0.0991104
0.0986891
0.0982816
0.0978942
0.109634
0.109322
0.109045
0.108806
0.108609
0.108457
0.108353
0.108297
0.108291
0.108336
0.108429
0.108571
0.108758
0.108989
0.109259
0.109565
0.109902
0.110265
0.110648
0.111046
0.111452
0.111859
0.112262
0.112654
0.113029
0.113379
0.113701
0.113987
0.114234
0.114438
0.114595
0.114702
0.114758
0.114762
0.114713
0.114614
0.114464
0.114268
0.114028
0.113748
0.113433
0.113089
0.11272
0.112333
0.111933
0.111528
0.111124
0.110726
0.110341
0.109975
0.121679
0.121386
0.121125
0.1209
0.120715
0.120571
0.120473
0.12042
0.120414
0.120455
0.120543
0.120675
0.120851
0.121067
0.121321
0.121608
0.121924
0.122265
0.122625
0.122998
0.123379
0.123762
0.124141
0.124509
0.124861
0.12519
0.125492
0.125762
0.125994
0.126186
0.126333
0.126434
0.126487
0.126492
0.126447
0.126354
0.126214
0.12603
0.125805
0.125543
0.125248
0.124924
0.124578
0.124215
0.12384
0.123459
0.123079
0.122706
0.122344
0.122
0.133635
0.133361
0.133116
0.132906
0.132732
0.132597
0.132505
0.132455
0.132449
0.132486
0.132568
0.132691
0.132855
0.133057
0.133293
0.133562
0.133857
0.134175
0.134511
0.134861
0.135217
0.135574
0.135928
0.136273
0.136601
0.13691
0.137192
0.137444
0.137662
0.137841
0.13798
0.138075
0.138125
0.138129
0.138088
0.138002
0.137872
0.1377
0.137491
0.137246
0.136971
0.136669
0.136346
0.136006
0.135656
0.1353
0.134945
0.134596
0.134257
0.133936
0.145474
0.145218
0.14499
0.144794
0.144631
0.144506
0.144419
0.144372
0.144366
0.1444
0.144475
0.14459
0.144741
0.144929
0.145148
0.145398
0.145672
0.145968
0.14628
0.146605
0.146936
0.147268
0.147598
0.147918
0.148224
0.14851
0.148773
0.149008
0.149211
0.149378
0.149507
0.149596
0.149643
0.149648
0.14961
0.149531
0.149411
0.149252
0.149057
0.148831
0.148575
0.148295
0.147994
0.147679
0.147353
0.147023
0.146692
0.146367
0.146053
0.145753
0.157169
0.156932
0.156721
0.156539
0.156388
0.156272
0.156191
0.156147
0.15614
0.156172
0.15624
0.156346
0.156486
0.156658
0.156861
0.157091
0.157345
0.157618
0.157907
0.158207
0.158513
0.15882
0.159125
0.159421
0.159704
0.159969
0.160213
0.16043
0.160618
0.160773
0.160893
0.160976
0.16102
0.161025
0.160991
0.160918
0.160807
0.160661
0.160482
0.160273
0.160037
0.159778
0.159501
0.15921
0.158909
0.158603
0.158297
0.157997
0.157706
0.157428
0.1687
0.168481
0.168287
0.168119
0.16798
0.167872
0.167796
0.167755
0.167749
0.167777
0.16784
0.167936
0.168064
0.168222
0.168409
0.16862
0.168852
0.169103
0.169369
0.169644
0.169926
0.170208
0.170489
0.170761
0.171021
0.171265
0.171489
0.17169
0.171863
0.172006
0.172117
0.172193
0.172235
0.17224
0.172209
0.172143
0.172042
0.171908
0.171744
0.171552
0.171336
0.171098
0.170844
0.170576
0.170299
0.170019
0.169738
0.169461
0.169193
0.168938
0.180042
0.179842
0.179664
0.17951
0.179383
0.179283
0.179214
0.179176
0.179169
0.179194
0.179251
0.179338
0.179455
0.179599
0.179768
0.179961
0.180173
0.180402
0.180644
0.180895
0.181152
0.181411
0.181667
0.181916
0.182154
0.182377
0.182582
0.182766
0.182924
0.183055
0.183157
0.183228
0.183266
0.183272
0.183244
0.183184
0.183092
0.182971
0.182822
0.182647
0.18245
0.182233
0.182001
0.181757
0.181504
0.181248
0.180991
0.180738
0.180493
0.18026
0.191178
0.190996
0.190834
0.190694
0.190578
0.190487
0.190424
0.190388
0.190382
0.190404
0.190454
0.190533
0.190638
0.190768
0.190921
0.191095
0.191287
0.191495
0.191714
0.191942
0.192175
0.19241
0.192643
0.192868
0.193085
0.193288
0.193474
0.193641
0.193785
0.193905
0.193998
0.194062
0.194097
0.194103
0.194079
0.194025
0.193943
0.193833
0.193698
0.19354
0.193362
0.193166
0.192955
0.192734
0.192505
0.192272
0.19204
0.19181
0.191588
0.191376
0.202088
0.201924
0.201777
0.201651
0.201546
0.201464
0.201406
0.201373
0.201366
0.201385
0.20143
0.2015
0.201594
0.201711
0.201848
0.202004
0.202177
0.202363
0.202561
0.202766
0.202976
0.203187
0.203397
0.2036
0.203795
0.203978
0.204147
0.204297
0.204428
0.204536
0.20462
0.204679
0.204712
0.204717
0.204696
0.204649
0.204575
0.204477
0.204356
0.204214
0.204054
0.203878
0.203688
0.203489
0.203284
0.203074
0.202865
0.202658
0.202458
0.202267
0.212753
0.212607
0.212475
0.212362
0.212267
0.212193
0.212141
0.212111
0.212104
0.21212
0.21216
0.212221
0.212304
0.212408
0.21253
0.212669
0.212822
0.212989
0.213164
0.213348
0.213535
0.213724
0.213911
0.214093
0.214267
0.214431
0.214582
0.214717
0.214834
0.214932
0.215007
0.215061
0.21509
0.215096
0.215078
0.215036
0.214971
0.214884
0.214776
0.21465
0.214508
0.214351
0.214182
0.214005
0.213821
0.213634
0.213447
0.213263
0.213084
0.212913
0.223155
0.223025
0.222909
0.222808
0.222724
0.222657
0.22261
0.222583
0.222576
0.22259
0.222623
0.222677
0.22275
0.222841
0.222948
0.22307
0.223206
0.223352
0.223508
0.223669
0.223835
0.224002
0.224168
0.224329
0.224484
0.224629
0.224763
0.224883
0.224987
0.225074
0.225142
0.22519
0.225217
0.225222
0.225207
0.225171
0.225114
0.225037
0.224943
0.224832
0.224706
0.224568
0.224419
0.224262
0.2241
0.223935
0.223769
0.223606
0.223448
0.223297
0.233277
0.233163
0.23306
0.232971
0.232897
0.232838
0.232796
0.232771
0.232764
0.232775
0.232804
0.232851
0.232914
0.232992
0.233086
0.233192
0.233311
0.233439
0.233575
0.233716
0.233861
0.234007
0.234153
0.234295
0.23443
0.234558
0.234676
0.234782
0.234874
0.234951
0.235011
0.235053
0.235078
0.235084
0.235071
0.23504
0.23499
0.234924
0.234842
0.234745
0.234636
0.234515
0.234385
0.234248
0.234106
0.233961
0.233816
0.233673
0.233534
0.233401
0.243098
0.242999
0.242909
0.242831
0.242766
0.242714
0.242677
0.242655
0.242648
0.242657
0.242682
0.242721
0.242775
0.242843
0.242923
0.243016
0.243118
0.243229
0.243346
0.243469
0.243595
0.243722
0.243849
0.243972
0.24409
0.244202
0.244305
0.244397
0.244478
0.244545
0.244598
0.244635
0.244657
0.244663
0.244653
0.244626
0.244584
0.244527
0.244456
0.244373
0.244278
0.244174
0.244061
0.243942
0.243819
0.243694
0.243567
0.243443
0.243322
0.243207
0.252596
0.25251
0.252432
0.252365
0.252308
0.252263
0.25223
0.25221
0.252204
0.252211
0.252231
0.252264
0.25231
0.252368
0.252437
0.252515
0.252603
0.252698
0.252799
0.252904
0.253012
0.253122
0.25323
0.253337
0.253439
0.253535
0.253624
0.253704
0.253774
0.253833
0.253879
0.253912
0.253932
0.253938
0.253929
0.253907
0.253871
0.253823
0.253763
0.253691
0.25361
0.253521
0.253424
0.253322
0.253216
0.253108
0.253
0.252893
0.252789
0.252689
0.261748
0.261675
0.261609
0.261551
0.261502
0.261463
0.261435
0.261417
0.26141
0.261416
0.261432
0.261459
0.261497
0.261546
0.261603
0.26167
0.261743
0.261823
0.261909
0.261998
0.26209
0.262183
0.262276
0.262367
0.262454
0.262536
0.262612
0.262681
0.262741
0.262792
0.262832
0.262861
0.262878
0.262884
0.262877
0.262859
0.262829
0.262789
0.262738
0.262678
0.262609
0.262533
0.262451
0.262365
0.262275
0.262184
0.262092
0.262001
0.261912
0.261828
0.270536
0.270474
0.270418
0.270369
0.270328
0.270294
0.27027
0.270254
0.270248
0.270252
0.270264
0.270286
0.270317
0.270357
0.270405
0.270459
0.270521
0.270587
0.270659
0.270734
0.270811
0.270889
0.270966
0.271043
0.271116
0.271186
0.271251
0.271309
0.27136
0.271403
0.271437
0.271462
0.271478
0.271483
0.271478
0.271464
0.27144
0.271406
0.271364
0.271314
0.271257
0.271193
0.271125
0.271053
0.270978
0.270901
0.270824
0.270748
0.270674
0.270603
0.278937
0.278886
0.278839
0.278799
0.278764
0.278736
0.278715
0.278701
0.278695
0.278697
0.278707
0.278724
0.278748
0.27878
0.278819
0.278863
0.278913
0.278968
0.279027
0.279088
0.279152
0.279216
0.279281
0.279344
0.279406
0.279464
0.279518
0.279567
0.27961
0.279646
0.279675
0.279697
0.279711
0.279716
0.279712
0.279701
0.279681
0.279654
0.27962
0.279579
0.279532
0.27948
0.279424
0.279364
0.279302
0.279239
0.279176
0.279113
0.279052
0.278993
0.286926
0.286884
0.286846
0.286812
0.286783
0.28676
0.286742
0.28673
0.286724
0.286725
0.286732
0.286745
0.286764
0.286789
0.286819
0.286854
0.286894
0.286938
0.286985
0.287035
0.287087
0.287139
0.287192
0.287244
0.287295
0.287342
0.287387
0.287428
0.287464
0.287494
0.287519
0.287537
0.287549
0.287554
0.287552
0.287543
0.287528
0.287507
0.287479
0.287446
0.287408
0.287366
0.287321
0.287273
0.287223
0.287172
0.28712
0.287069
0.287019
0.286971
0.294478
0.294444
0.294414
0.294386
0.294363
0.294343
0.294329
0.294318
0.294312
0.294312
0.294316
0.294325
0.294339
0.294358
0.294381
0.294409
0.29444
0.294474
0.294511
0.294551
0.294592
0.294634
0.294676
0.294718
0.294759
0.294798
0.294834
0.294868
0.294897
0.294922
0.294943
0.294959
0.294969
0.294974
0.294973
0.294967
0.294955
0.294939
0.294917
0.294891
0.294862
0.294828
0.294792
0.294754
0.294715
0.294674
0.294633
0.294592
0.294553
0.294514
0.301574
0.301548
0.301524
0.301502
0.301483
0.301467
0.301455
0.301446
0.30144
0.301439
0.30144
0.301446
0.301456
0.301469
0.301486
0.301506
0.30153
0.301556
0.301584
0.301615
0.301647
0.30168
0.301713
0.301746
0.301779
0.30181
0.301839
0.301866
0.301891
0.301911
0.301929
0.301942
0.301951
0.301956
0.301956
0.301952
0.301944
0.301931
0.301915
0.301895
0.301872
0.301847
0.301819
0.301789
0.301758
0.301727
0.301695
0.301664
0.301633
0.301603
0.308199
0.308179
0.30816
0.308143
0.308128
0.308115
0.308105
0.308096
0.308091
0.308089
0.308088
0.308091
0.308097
0.308106
0.308118
0.308132
0.308149
0.308168
0.30819
0.308213
0.308237
0.308262
0.308288
0.308314
0.30834
0.308365
0.308389
0.308411
0.30843
0.308447
0.308462
0.308473
0.308481
0.308486
0.308487
0.308484
0.308479
0.30847
0.308458
0.308443
0.308426
0.308407
0.308385
0.308363
0.30834
0.308316
0.308291
0.308268
0.308244
0.308221
0.314357
0.314341
0.314326
0.314312
0.3143
0.314289
0.314279
0.314272
0.314266
0.314263
0.314261
0.314262
0.314265
0.314271
0.314278
0.314288
0.3143
0.314315
0.314331
0.314348
0.314367
0.314387
0.314408
0.314429
0.31445
0.31447
0.31449
0.314508
0.314525
0.314539
0.314552
0.314562
0.314569
0.314574
0.314575
0.314574
0.31457
0.314564
0.314555
0.314544
0.314531
0.314517
0.314501
0.314483
0.314465
0.314447
0.314428
0.31441
0.314392
0.314374
0.319904
0.319889
0.319875
0.319862
0.31985
0.319839
0.319831
0.319824
0.319818
0.319815
0.319813
0.319814
0.319817
0.319822
0.319829
0.319838
0.319849
0.319863
0.319878
0.319894
0.319912
0.319931
0.319951
0.319971
0.319991
0.320011
0.32003
0.320047
0.320063
0.320078
0.32009
0.320099
0.320106
0.32011
0.320112
0.320111
0.320107
0.320101
0.320092
0.320082
0.320069
0.320055
0.32004
0.320023
0.320006
0.319989
0.319971
0.319954
0.319937
0.31992
0.324751
0.324732
0.324714
0.324698
0.324685
0.324673
0.324663
0.324656
0.324652
0.32465
0.324651
0.324654
0.32466
0.324669
0.324681
0.324695
0.324712
0.324731
0.324752
0.324775
0.324798
0.324823
0.324848
0.324874
0.324898
0.324922
0.324945
0.324966
0.324985
0.325001
0.325014
0.325025
0.325032
0.325036
0.325036
0.325033
0.325026
0.325017
0.325005
0.32499
0.324972
0.324953
0.324932
0.32491
0.324887
0.324864
0.32484
0.324817
0.324794
0.324772
0.328473
0.328447
0.328424
0.328404
0.328387
0.328373
0.328363
0.328356
0.328353
0.328353
0.328358
0.328366
0.328378
0.328393
0.328412
0.328434
0.32846
0.328488
0.328519
0.328551
0.328585
0.32862
0.328655
0.32869
0.328723
0.328755
0.328785
0.328812
0.328836
0.328856
0.328871
0.328883
0.328889
0.328891
0.328889
0.328882
0.32887
0.328854
0.328834
0.328811
0.328784
0.328756
0.328725
0.328693
0.32866
0.328627
0.328594
0.328561
0.32853
0.3285
0.331376
0.331347
0.331322
0.331299
0.33128
0.331266
0.331255
0.331248
0.331246
0.331248
0.331255
0.331266
0.331281
0.3313
0.331324
0.331351
0.331381
0.331414
0.331449
0.331487
0.331526
0.331565
0.331605
0.331644
0.331681
0.331717
0.33175
0.33178
0.331806
0.331828
0.331845
0.331857
0.331863
0.331865
0.331861
0.331852
0.331837
0.331818
0.331795
0.331768
0.331737
0.331703
0.331668
0.33163
0.331592
0.331554
0.331515
0.331478
0.331442
0.331408
0.331568
0.331538
0.331511
0.331489
0.331469
0.331454
0.331444
0.331437
0.331435
0.331438
0.331445
0.331457
0.331474
0.331495
0.33152
0.331549
0.331582
0.331618
0.331656
0.331697
0.331739
0.331782
0.331825
0.331867
0.331907
0.331946
0.331981
0.332013
0.332041
0.332064
0.332082
0.332094
0.3321
0.332101
0.332095
0.332084
0.332067
0.332046
0.332019
0.331989
0.331954
0.331918
0.331878
0.331838
0.331797
0.331755
0.331715
0.331675
0.331637
0.331601
-0.0750911
-0.0756479
-0.076146
-0.0765779
-0.0769374
-0.0772191
-0.0774187
-0.0775333
-0.077561
-0.0775013
-0.0773544
-0.0771227
-0.0768091
-0.0764183
-0.0759559
-0.0754285
-0.074844
-0.074211
-0.0735394
-0.0728394
-0.0721221
-0.0713986
-0.0706809
-0.0699802
-0.0693084
-0.0686764
-0.0680948
-0.0675735
-0.0671211
-0.0667453
-0.0664525
-0.0662476
-0.0661342
-0.0661134
-0.0661858
-0.0663499
-0.0666026
-0.0669402
-0.0673559
-0.0678428
-0.0683924
-0.0689956
-0.0696425
-0.0703226
-0.0710248
-0.0717382
-0.0724516
-0.0731541
-0.0738348
-0.0744838
-0.0738499
-0.0744031
-0.0748979
-0.0753269
-0.075684
-0.0759638
-0.0761621
-0.0762759
-0.0763034
-0.0762441
-0.076098
-0.0758678
-0.0755562
-0.0751679
-0.0747086
-0.0741846
-0.0736039
-0.0729751
-0.072308
-0.0716126
-0.0709
-0.0701814
-0.0694683
-0.0687724
-0.068105
-0.0674773
-0.0668996
-0.0663818
-0.0659324
-0.0655591
-0.0652684
-0.0650648
-0.0649522
-0.0649315
-0.0650034
-0.0651665
-0.0654175
-0.0657528
-0.0661657
-0.0666494
-0.0671953
-0.0677946
-0.0684372
-0.0691128
-0.0698104
-0.0705191
-0.0712278
-0.0719256
-0.0726019
-0.0732466
-0.0708411
-0.071387
-0.0718752
-0.0722986
-0.072651
-0.0729272
-0.0731229
-0.0732353
-0.0732625
-0.073204
-0.0730601
-0.0728331
-0.0725256
-0.0721426
-0.0716895
-0.0711726
-0.0705998
-0.0699794
-0.0693213
-0.0686353
-0.0679323
-0.0672234
-0.0665199
-0.0658333
-0.065175
-0.0645556
-0.0639856
-0.0634747
-0.0630313
-0.062663
-0.062376
-0.0621751
-0.0620638
-0.0620433
-0.0621141
-0.0622748
-0.0625223
-0.062853
-0.0632602
-0.0637372
-0.0642757
-0.0648668
-0.0655008
-0.0661672
-0.0668555
-0.0675547
-0.0682539
-0.0689424
-0.0696097
-0.0702458
-0.0663158
-0.0668529
-0.0673334
-0.0677502
-0.068097
-0.0683688
-0.0685615
-0.0686722
-0.068699
-0.0686416
-0.0685
-0.0682767
-0.0679743
-0.0675975
-0.0671518
-0.0666432
-0.0660796
-0.0654693
-0.0648218
-0.0641469
-0.0634552
-0.0627577
-0.0620657
-0.0613902
-0.0607425
-0.0601331
-0.0595723
-0.0590697
-0.0586334
-0.0582709
-0.0579885
-0.0577907
-0.0576812
-0.0576608
-0.0577303
-0.0578882
-0.0581316
-0.0584567
-0.0588572
-0.0593264
-0.0598561
-0.0604375
-0.0610611
-0.0617168
-0.0623939
-0.0630819
-0.0637698
-0.0644473
-0.0651039
-0.0657299
-0.0603999
-0.0609273
-0.061399
-0.0618082
-0.0621487
-0.0624155
-0.0626046
-0.0627133
-0.0627396
-0.0626831
-0.0625441
-0.0623249
-0.0620279
-0.0616579
-0.0612203
-0.060721
-0.0601677
-0.0595685
-0.0589329
-0.0582704
-0.0575915
-0.0569069
-0.0562276
-0.0555647
-0.0549289
-0.0543309
-0.0537806
-0.0532872
-0.0528591
-0.0525034
-0.0522262
-0.052032
-0.0519245
-0.0519044
-0.0519726
-0.0521275
-0.0523663
-0.0526854
-0.0530783
-0.0535388
-0.0540586
-0.0546293
-0.0552414
-0.055885
-0.0565497
-0.057225
-0.0579004
-0.0585655
-0.0592102
-0.0598247
-0.0534899
-0.0540067
-0.0544691
-0.0548701
-0.0552037
-0.0554651
-0.0556503
-0.0557566
-0.0557821
-0.0557265
-0.05559
-0.0553749
-0.0550836
-0.0547206
-0.0542915
-0.0538019
-0.0532595
-0.0526721
-0.0520491
-0.0513997
-0.0507343
-0.0500634
-0.0493978
-0.0487481
-0.0481253
-0.0475394
-0.0470002
-0.0465169
-0.0460975
-0.0457491
-0.0454776
-0.0452875
-0.0451823
-0.0451627
-0.0452296
-0.0453815
-0.0456156
-0.0459283
-0.0463134
-0.0467647
-0.0472742
-0.0478336
-0.0484335
-0.0490644
-0.0497159
-0.0503778
-0.0510399
-0.0516918
-0.0523237
-0.0529261
-0.0458094
-0.0463154
-0.0467679
-0.0471603
-0.0474868
-0.0477425
-0.0479235
-0.0480272
-0.0480518
-0.047997
-0.047863
-0.047652
-0.0473664
-0.0470107
-0.0465902
-0.0461106
-0.0455793
-0.0450041
-0.044394
-0.0437582
-0.0431068
-0.04245
-0.0417985
-0.0411628
-0.0405532
-0.0399799
-0.0394524
-0.0389796
-0.0385693
-0.0382286
-0.0379631
-0.0377773
-0.0376746
-0.0376555
-0.0377212
-0.0378702
-0.0380996
-0.0384058
-0.0387829
-0.0392248
-0.0397237
-0.0402714
-0.0408588
-0.0414765
-0.0421144
-0.0427626
-0.0434108
-0.0440491
-0.0446678
-0.0452575
-0.0375026
-0.0379974
-0.0384399
-0.0388236
-0.0391427
-0.0393925
-0.0395692
-0.0396703
-0.0396939
-0.0396399
-0.0395083
-0.0393015
-0.0390217
-0.0386732
-0.0382615
-0.037792
-0.037272
-0.0367091
-0.0361122
-0.0354902
-0.0348529
-0.0342106
-0.0335734
-0.0329517
-0.0323558
-0.0317953
-0.0312796
-0.0308174
-0.0304165
-0.0300835
-0.0298243
-0.0296428
-0.0295429
-0.0295243
-0.0295889
-0.0297348
-0.0299594
-0.0302592
-0.0306282
-0.0310606
-0.0315488
-0.0320847
-0.0326594
-0.0332637
-0.0338879
-0.034522
-0.0351561
-0.0357806
-0.0363858
-0.0369627
-0.0287123
-0.0291959
-0.0296283
-0.0300031
-0.0303148
-0.0305586
-0.030731
-0.0308294
-0.0308521
-0.0307987
-0.0306696
-0.0304669
-0.030193
-0.0298519
-0.029449
-0.0289896
-0.028481
-0.0279304
-0.0273467
-0.0267385
-0.0261156
-0.0254877
-0.024865
-0.0242574
-0.0236751
-0.0231275
-0.0226237
-0.0221723
-0.0217807
-0.0214556
-0.0212026
-0.0210256
-0.0209284
-0.0209104
-0.0209738
-0.0211167
-0.0213367
-0.0216299
-0.0219909
-0.0224138
-0.0228912
-0.0234152
-0.0239773
-0.0245682
-0.0251785
-0.0257985
-0.0264185
-0.027029
-0.0276207
-0.0281846
-0.0195481
-0.0200204
-0.0204427
-0.0208086
-0.0211127
-0.0213506
-0.0215186
-0.0216143
-0.0216359
-0.0215833
-0.0214566
-0.0212581
-0.02099
-0.0206562
-0.0202622
-0.0198131
-0.0193158
-0.0187777
-0.0182072
-0.017613
-0.0170044
-0.016391
-0.0157828
-0.0151894
-0.0146207
-0.0140861
-0.0135942
-0.0131536
-0.0127715
-0.0124542
-0.0122074
-0.0120349
-0.0119405
-0.0119232
-0.0119855
-0.0121254
-0.0123406
-0.0126274
-0.0129803
-0.0133937
-0.0138603
-0.0143725
-0.0149217
-0.0154992
-0.0160956
-0.0167014
-0.0173072
-0.0179037
-0.0184818
-0.0190327
-0.0101073
-0.0105683
-0.0109803
-0.0113373
-0.0116338